
     Program PWSCF v.6.7MaX starts on 21Apr2023 at  8:56: 5 

     This program is part of the open-source Quantum ESPRESSO suite
     for quantum simulation of materials; please cite
         "P. Giannozzi et al., J. Phys.:Condens. Matter 21 395502 (2009);
         "P. Giannozzi et al., J. Phys.:Condens. Matter 29 465901 (2017);
          URL http://www.quantum-espresso.org", 
     in publications or presentations arising from this work. More details at
     http://www.quantum-espresso.org/quote

     Parallel version (MPI), running on    60 processors

     MPI processes distributed on    15 nodes
     K-points division:     npool     =      15
     R & G space division:  proc/nbgrp/npool/nimage =       4
     Reading input from TiIr.Pm3m.vc-relax.in

     Current dimensions of program PWSCF are:
     Max number of different atomic species (ntypx) = 10
     Max number of k-points (npk) =  40000
     Max angular momentum in pseudopotentials (lmaxx) =  3

check_writable_dir fail: insufficient permissions to access './'

check_writable_dir fail: insufficient permissions to access './'

check_writable_dir fail: insufficient permissions to access './'

check_writable_dir fail: insufficient permissions to access './'

check_writable_dir fail: insufficient permissions to access './'

check_writable_dir fail: insufficient permissions to access './'

check_writable_dir fail: insufficient permissions to access './'

check_writable_dir fail: insufficient permissions to access './'

     Subspace diagonalization in iterative solution of the eigenvalue problem:
     a serial algorithm will be used

 
     Parallelization info
     --------------------
     sticks:   dense  smooth     PW     G-vecs:    dense   smooth      PW
     Min         382     382    108                11178    11178    1731
     Max         384     384    110                11179    11179    1734
     Sum        1533    1533    437                44713    44713    6931
 

     Title: 
     variable cell relaxation for 2-atom Im-3m                                  


     bravais-lattice index     =            1
     lattice parameter (alat)  =       5.6503  a.u.
     unit-cell volume          =     180.3892 (a.u.)^3
     number of atoms/cell      =            2
     number of atomic types    =            2
     number of electrons       =        27.00
     number of Kohn-Sham states=           17
     kinetic-energy cutoff     =     150.0000  Ry
     charge density cutoff     =     600.0000  Ry
     scf convergence threshold =      1.0E-08
     mixing beta               =       0.7000
     number of iterations used =            8  plain     mixing
     energy convergence thresh.=      7.3E-05
     force convergence thresh. =      1.9E-04
     press convergence thresh. =      1.0E+00
     Exchange-correlation= SLA  PW   PSX  PSC
                           (   1   4  10   8   0   0   0)
     nstep                     =          150


     celldm(1)=   5.650283  celldm(2)=   0.000000  celldm(3)=   0.000000
     celldm(4)=   0.000000  celldm(5)=   0.000000  celldm(6)=   0.000000

     crystal axes: (cart. coord. in units of alat)
               a(1) = (   1.000000   0.000000   0.000000 )  
               a(2) = (   0.000000   1.000000   0.000000 )  
               a(3) = (   0.000000   0.000000   1.000000 )  

     reciprocal axes: (cart. coord. in units 2 pi/alat)
               b(1) = (  1.000000  0.000000  0.000000 )  
               b(2) = (  0.000000  1.000000  0.000000 )  
               b(3) = (  0.000000  0.000000  1.000000 )  


     PseudoPot. # 1 for Ti read from file:
     /share/pseudo/ti_pbesol_v1.4.uspp.F.UPF
     MD5 check sum: 193cf2c0c3c6a4da613d69453fa7e3e9
     Pseudo is Ultrasoft + core correction, Zval = 12.0
     Generated by new atomic code, or converted to UPF format
     Using radial grid of  851 points,  6 beta functions with: 
                l(1) =   0
                l(2) =   0
                l(3) =   1
                l(4) =   1
                l(5) =   2
                l(6) =   2
     Q(r) pseudized with  6 coefficients,  rinner =    1.000   1.000   1.000
                                                       1.000   1.000

     PseudoPot. # 2 for Ir read from file:
     /share/pseudo/ir_pbesol_v1.2.uspp.F.UPF
     MD5 check sum: 965d8bb5733ec2587acb56a50491f36d
     Pseudo is Ultrasoft + core correction, Zval = 15.0
     Generated by new atomic code, or converted to UPF format
     Using radial grid of  983 points,  7 beta functions with: 
                l(1) =   0
                l(2) =   0
                l(3) =   1
                l(4) =   1
                l(5) =   1
                l(6) =   2
                l(7) =   2
     Q(r) pseudized with  8 coefficients,  rinner =    1.400   1.400   1.400
                                                       1.400   1.400

     atomic species   valence    mass     pseudopotential
        Ti            12.00   195.08000     Ti( 1.00)
        Ir            15.00   192.22000     Ir( 1.00)

      cell mass =   0.00100 AMU/(a.u.)^2 

     48 Sym. Ops., with inversion, found



   Cartesian axes

     site n.     atom                  positions (alat units)
         1           Ti  tau(   1) = (   0.0000000   0.0000000   0.0000000  )
         2           Ir  tau(   2) = (   0.5000000   0.5000000   0.5000000  )

     number of k points=    84  Gaussian smearing, width (Ry)=  0.0030
                       cart. coord. in units 2pi/alat
        k(    1) = (   0.0000000   0.0000000   0.0000000), wk =   0.0009103
        k(    2) = (   0.0000000   0.0000000   0.0769231), wk =   0.0054620
        k(    3) = (   0.0000000   0.0000000   0.1538462), wk =   0.0054620
        k(    4) = (   0.0000000   0.0000000   0.2307692), wk =   0.0054620
        k(    5) = (   0.0000000   0.0000000   0.3076923), wk =   0.0054620
        k(    6) = (   0.0000000   0.0000000   0.3846154), wk =   0.0054620
        k(    7) = (   0.0000000   0.0000000   0.4615385), wk =   0.0054620
        k(    8) = (   0.0000000   0.0769231   0.0769231), wk =   0.0109240
        k(    9) = (   0.0000000   0.0769231   0.1538462), wk =   0.0218480
        k(   10) = (   0.0000000   0.0769231   0.2307692), wk =   0.0218480
        k(   11) = (   0.0000000   0.0769231   0.3076923), wk =   0.0218480
        k(   12) = (   0.0000000   0.0769231   0.3846154), wk =   0.0218480
        k(   13) = (   0.0000000   0.0769231   0.4615385), wk =   0.0218480
        k(   14) = (   0.0000000   0.1538462   0.1538462), wk =   0.0109240
        k(   15) = (   0.0000000   0.1538462   0.2307692), wk =   0.0218480
        k(   16) = (   0.0000000   0.1538462   0.3076923), wk =   0.0218480
        k(   17) = (   0.0000000   0.1538462   0.3846154), wk =   0.0218480
        k(   18) = (   0.0000000   0.1538462   0.4615385), wk =   0.0218480
        k(   19) = (   0.0000000   0.2307692   0.2307692), wk =   0.0109240
        k(   20) = (   0.0000000   0.2307692   0.3076923), wk =   0.0218480
        k(   21) = (   0.0000000   0.2307692   0.3846154), wk =   0.0218480
        k(   22) = (   0.0000000   0.2307692   0.4615385), wk =   0.0218480
        k(   23) = (   0.0000000   0.3076923   0.3076923), wk =   0.0109240
        k(   24) = (   0.0000000   0.3076923   0.3846154), wk =   0.0218480
        k(   25) = (   0.0000000   0.3076923   0.4615385), wk =   0.0218480
        k(   26) = (   0.0000000   0.3846154   0.3846154), wk =   0.0109240
        k(   27) = (   0.0000000   0.3846154   0.4615385), wk =   0.0218480
        k(   28) = (   0.0000000   0.4615385   0.4615385), wk =   0.0109240
        k(   29) = (   0.0769231   0.0769231   0.0769231), wk =   0.0072827
        k(   30) = (   0.0769231   0.0769231   0.1538462), wk =   0.0218480
        k(   31) = (   0.0769231   0.0769231   0.2307692), wk =   0.0218480
        k(   32) = (   0.0769231   0.0769231   0.3076923), wk =   0.0218480
        k(   33) = (   0.0769231   0.0769231   0.3846154), wk =   0.0218480
        k(   34) = (   0.0769231   0.0769231   0.4615385), wk =   0.0218480
        k(   35) = (   0.0769231   0.1538462   0.1538462), wk =   0.0218480
        k(   36) = (   0.0769231   0.1538462   0.2307692), wk =   0.0436959
        k(   37) = (   0.0769231   0.1538462   0.3076923), wk =   0.0436959
        k(   38) = (   0.0769231   0.1538462   0.3846154), wk =   0.0436959
        k(   39) = (   0.0769231   0.1538462   0.4615385), wk =   0.0436959
        k(   40) = (   0.0769231   0.2307692   0.2307692), wk =   0.0218480
        k(   41) = (   0.0769231   0.2307692   0.3076923), wk =   0.0436959
        k(   42) = (   0.0769231   0.2307692   0.3846154), wk =   0.0436959
        k(   43) = (   0.0769231   0.2307692   0.4615385), wk =   0.0436959
        k(   44) = (   0.0769231   0.3076923   0.3076923), wk =   0.0218480
        k(   45) = (   0.0769231   0.3076923   0.3846154), wk =   0.0436959
        k(   46) = (   0.0769231   0.3076923   0.4615385), wk =   0.0436959
        k(   47) = (   0.0769231   0.3846154   0.3846154), wk =   0.0218480
        k(   48) = (   0.0769231   0.3846154   0.4615385), wk =   0.0436959
        k(   49) = (   0.0769231   0.4615385   0.4615385), wk =   0.0218480
        k(   50) = (   0.1538462   0.1538462   0.1538462), wk =   0.0072827
        k(   51) = (   0.1538462   0.1538462   0.2307692), wk =   0.0218480
        k(   52) = (   0.1538462   0.1538462   0.3076923), wk =   0.0218480
        k(   53) = (   0.1538462   0.1538462   0.3846154), wk =   0.0218480
        k(   54) = (   0.1538462   0.1538462   0.4615385), wk =   0.0218480
        k(   55) = (   0.1538462   0.2307692   0.2307692), wk =   0.0218480
        k(   56) = (   0.1538462   0.2307692   0.3076923), wk =   0.0436959
        k(   57) = (   0.1538462   0.2307692   0.3846154), wk =   0.0436959
        k(   58) = (   0.1538462   0.2307692   0.4615385), wk =   0.0436959
        k(   59) = (   0.1538462   0.3076923   0.3076923), wk =   0.0218480
        k(   60) = (   0.1538462   0.3076923   0.3846154), wk =   0.0436959
        k(   61) = (   0.1538462   0.3076923   0.4615385), wk =   0.0436959
        k(   62) = (   0.1538462   0.3846154   0.3846154), wk =   0.0218480
        k(   63) = (   0.1538462   0.3846154   0.4615385), wk =   0.0436959
        k(   64) = (   0.1538462   0.4615385   0.4615385), wk =   0.0218480
        k(   65) = (   0.2307692   0.2307692   0.2307692), wk =   0.0072827
        k(   66) = (   0.2307692   0.2307692   0.3076923), wk =   0.0218480
        k(   67) = (   0.2307692   0.2307692   0.3846154), wk =   0.0218480
        k(   68) = (   0.2307692   0.2307692   0.4615385), wk =   0.0218480
        k(   69) = (   0.2307692   0.3076923   0.3076923), wk =   0.0218480
        k(   70) = (   0.2307692   0.3076923   0.3846154), wk =   0.0436959
        k(   71) = (   0.2307692   0.3076923   0.4615385), wk =   0.0436959
        k(   72) = (   0.2307692   0.3846154   0.3846154), wk =   0.0218480
        k(   73) = (   0.2307692   0.3846154   0.4615385), wk =   0.0436959
        k(   74) = (   0.2307692   0.4615385   0.4615385), wk =   0.0218480
        k(   75) = (   0.3076923   0.3076923   0.3076923), wk =   0.0072827
        k(   76) = (   0.3076923   0.3076923   0.3846154), wk =   0.0218480
        k(   77) = (   0.3076923   0.3076923   0.4615385), wk =   0.0218480
        k(   78) = (   0.3076923   0.3846154   0.3846154), wk =   0.0218480
        k(   79) = (   0.3076923   0.3846154   0.4615385), wk =   0.0436959
        k(   80) = (   0.3076923   0.4615385   0.4615385), wk =   0.0218480
        k(   81) = (   0.3846154   0.3846154   0.3846154), wk =   0.0072827
        k(   82) = (   0.3846154   0.3846154   0.4615385), wk =   0.0218480
        k(   83) = (   0.3846154   0.4615385   0.4615385), wk =   0.0218480
        k(   84) = (   0.4615385   0.4615385   0.4615385), wk =   0.0072827

     Dense  grid:    44713 G-vectors     FFT dimensions: (  45,  45,  45)

     Estimated max dynamical RAM per process >      23.56 MB

     Estimated total dynamical RAM >       1.38 GB

     Initial potential from superposition of free atoms

     starting charge   25.49993, renormalised to   27.00000

     negative rho (up, down):  3.771E-01 0.000E+00
     Starting wfcs are   22 randomized atomic wfcs

     total cpu time spent up to now is        2.1 secs

     Self-consistent Calculation

     iteration #  1     ecut=   150.00 Ry     beta= 0.70
     CG style diagonalization
     ethr =  1.00E-02,  avg # of iterations =  2.6

     negative rho (up, down):  2.501E-01 0.000E+00

     total cpu time spent up to now is        2.7 secs

     total energy              =    -296.05679313 Ry
     estimated scf accuracy    <       7.44859088 Ry

     iteration #  2     ecut=   150.00 Ry     beta= 0.70
     CG style diagonalization
     ethr =  1.00E-02,  avg # of iterations =  5.5

     negative rho (up, down):  2.666E-01 0.000E+00

     total cpu time spent up to now is        3.7 secs

     total energy              =    -299.77834295 Ry
     estimated scf accuracy    <      17.90764094 Ry

     iteration #  3     ecut=   150.00 Ry     beta= 0.70
     CG style diagonalization
     ethr =  1.00E-02,  avg # of iterations =  4.1

     negative rho (up, down):  2.907E-01 0.000E+00

     total cpu time spent up to now is        4.4 secs

     total energy              =    -300.84112838 Ry
     estimated scf accuracy    <       2.37995028 Ry

     iteration #  4     ecut=   150.00 Ry     beta= 0.70
     CG style diagonalization
     ethr =  8.81E-03,  avg # of iterations =  3.1

     negative rho (up, down):  3.182E-01 0.000E+00

     total cpu time spent up to now is        5.0 secs

     total energy              =    -300.59113854 Ry
     estimated scf accuracy    <       0.87385022 Ry

     iteration #  5     ecut=   150.00 Ry     beta= 0.70
     CG style diagonalization
     ethr =  3.24E-03,  avg # of iterations =  3.7

     negative rho (up, down):  2.942E-01 0.000E+00

     total cpu time spent up to now is        5.7 secs

     total energy              =    -300.56518141 Ry
     estimated scf accuracy    <       1.09417388 Ry

     iteration #  6     ecut=   150.00 Ry     beta= 0.70
     CG style diagonalization
     ethr =  3.24E-03,  avg # of iterations =  3.5

     negative rho (up, down):  3.138E-01 0.000E+00

     total cpu time spent up to now is        6.4 secs

     total energy              =    -300.77308578 Ry
     estimated scf accuracy    <       0.58616425 Ry

     iteration #  7     ecut=   150.00 Ry     beta= 0.70
     CG style diagonalization
     ethr =  2.17E-03,  avg # of iterations =  3.3

     negative rho (up, down):  3.131E-01 0.000E+00

     total cpu time spent up to now is        7.1 secs

     total energy              =    -300.90929375 Ry
     estimated scf accuracy    <       0.16984100 Ry

     iteration #  8     ecut=   150.00 Ry     beta= 0.70
     CG style diagonalization
     ethr =  6.29E-04,  avg # of iterations =  3.1

     negative rho (up, down):  3.132E-01 0.000E+00

     total cpu time spent up to now is        7.7 secs

     total energy              =    -300.91768320 Ry
     estimated scf accuracy    <       0.13203392 Ry

     iteration #  9     ecut=   150.00 Ry     beta= 0.70
     CG style diagonalization
     ethr =  4.89E-04,  avg # of iterations =  3.0

     negative rho (up, down):  3.123E-01 0.000E+00

     total cpu time spent up to now is        8.2 secs

     total energy              =    -300.92077077 Ry
     estimated scf accuracy    <       0.15307872 Ry

     iteration # 10     ecut=   150.00 Ry     beta= 0.70
     CG style diagonalization
     ethr =  4.89E-04,  avg # of iterations =  3.0

     negative rho (up, down):  3.096E-01 0.000E+00

     total cpu time spent up to now is        8.8 secs

     total energy              =    -300.88972106 Ry
     estimated scf accuracy    <       0.17698382 Ry

     iteration # 11     ecut=   150.00 Ry     beta= 0.70
     CG style diagonalization
     ethr =  4.89E-04,  avg # of iterations =  3.0

     negative rho (up, down):  3.100E-01 0.000E+00

     total cpu time spent up to now is        9.4 secs

     total energy              =    -300.90669672 Ry
     estimated scf accuracy    <       0.00490847 Ry

     iteration # 12     ecut=   150.00 Ry     beta= 0.70
     CG style diagonalization
     ethr =  1.82E-05,  avg # of iterations =  3.5

     negative rho (up, down):  3.093E-01 0.000E+00

     total cpu time spent up to now is       10.1 secs

     total energy              =    -300.91224951 Ry
     estimated scf accuracy    <       0.00510080 Ry

     iteration # 13     ecut=   150.00 Ry     beta= 0.70
     CG style diagonalization
     ethr =  1.82E-05,  avg # of iterations =  3.2

     negative rho (up, down):  3.090E-01 0.000E+00

     total cpu time spent up to now is       10.7 secs

     total energy              =    -300.91392383 Ry
     estimated scf accuracy    <       0.00617364 Ry

     iteration # 14     ecut=   150.00 Ry     beta= 0.70
     CG style diagonalization
     ethr =  1.82E-05,  avg # of iterations =  3.1

     negative rho (up, down):  3.090E-01 0.000E+00

     total cpu time spent up to now is       11.3 secs

     total energy              =    -300.91959366 Ry
     estimated scf accuracy    <       0.02081079 Ry

     iteration # 15     ecut=   150.00 Ry     beta= 0.70
     CG style diagonalization
     ethr =  1.82E-05,  avg # of iterations =  3.6

     negative rho (up, down):  3.101E-01 0.000E+00

     total cpu time spent up to now is       12.0 secs

     total energy              =    -300.91606713 Ry
     estimated scf accuracy    <       0.08219831 Ry

     iteration # 16     ecut=   150.00 Ry     beta= 0.70
     CG style diagonalization
     ethr =  1.82E-05,  avg # of iterations =  3.2

     negative rho (up, down):  3.135E-01 0.000E+00

     total cpu time spent up to now is       12.6 secs

     total energy              =    -300.90314881 Ry
     estimated scf accuracy    <       0.04511364 Ry

     iteration # 17     ecut=   150.00 Ry     beta= 0.70
     CG style diagonalization
     ethr =  1.82E-05,  avg # of iterations =  4.5

     negative rho (up, down):  3.111E-01 0.000E+00

     total cpu time spent up to now is       13.4 secs

     total energy              =    -300.90864872 Ry
     estimated scf accuracy    <       0.00906656 Ry

     iteration # 18     ecut=   150.00 Ry     beta= 0.70
     CG style diagonalization
     ethr =  1.82E-05,  avg # of iterations =  3.4

     negative rho (up, down):  3.116E-01 0.000E+00

     total cpu time spent up to now is       14.0 secs

     total energy              =    -300.91002133 Ry
     estimated scf accuracy    <       0.00310281 Ry

     iteration # 19     ecut=   150.00 Ry     beta= 0.70
     CG style diagonalization
     ethr =  1.15E-05,  avg # of iterations =  3.2

     negative rho (up, down):  3.121E-01 0.000E+00

     total cpu time spent up to now is       14.6 secs

     total energy              =    -300.91076483 Ry
     estimated scf accuracy    <       0.00074873 Ry

     iteration # 20     ecut=   150.00 Ry     beta= 0.70
     CG style diagonalization
     ethr =  2.77E-06,  avg # of iterations =  3.2

     negative rho (up, down):  3.106E-01 0.000E+00

     total cpu time spent up to now is       15.3 secs

     total energy              =    -300.90947414 Ry
     estimated scf accuracy    <       0.00251624 Ry

     iteration # 21     ecut=   150.00 Ry     beta= 0.70
     CG style diagonalization
     ethr =  2.77E-06,  avg # of iterations =  4.3

     negative rho (up, down):  3.115E-01 0.000E+00

     total cpu time spent up to now is       16.0 secs

     total energy              =    -300.90888184 Ry
     estimated scf accuracy    <       0.01590288 Ry

     iteration # 22     ecut=   150.00 Ry     beta= 0.70
     CG style diagonalization
     ethr =  2.77E-06,  avg # of iterations =  4.0

     negative rho (up, down):  3.115E-01 0.000E+00

     total cpu time spent up to now is       16.8 secs

     total energy              =    -300.91050259 Ry
     estimated scf accuracy    <       0.00013845 Ry

     iteration # 23     ecut=   150.00 Ry     beta= 0.70
     CG style diagonalization
     ethr =  5.13E-07,  avg # of iterations =  3.2

     negative rho (up, down):  3.115E-01 0.000E+00

     total cpu time spent up to now is       17.4 secs

     total energy              =    -300.91050365 Ry
     estimated scf accuracy    <       0.00007106 Ry

     iteration # 24     ecut=   150.00 Ry     beta= 0.70
     CG style diagonalization
     ethr =  2.63E-07,  avg # of iterations =  3.0

     negative rho (up, down):  3.115E-01 0.000E+00

     total cpu time spent up to now is       18.0 secs

     total energy              =    -300.91051074 Ry
     estimated scf accuracy    <       0.00000029 Ry

     iteration # 25     ecut=   150.00 Ry     beta= 0.70
     CG style diagonalization
     ethr =  1.08E-09,  avg # of iterations =  4.2

     negative rho (up, down):  3.115E-01 0.000E+00

     total cpu time spent up to now is       18.8 secs

     total energy              =    -300.91051157 Ry
     estimated scf accuracy    <       0.00000036 Ry

     iteration # 26     ecut=   150.00 Ry     beta= 0.70
     CG style diagonalization
     ethr =  1.08E-09,  avg # of iterations =  3.1

     negative rho (up, down):  3.115E-01 0.000E+00

     total cpu time spent up to now is       19.4 secs

     End of self-consistent calculation

          k = 0.0000 0.0000 0.0000 (  5575 PWs)   bands (ev):

   -34.4768 -27.0873 -27.0873 -27.0873 -10.7264 -10.7264 -10.7264  12.9038
    15.7406  15.7406  19.7980  19.7980  19.7980  23.7314  23.7314  25.8256
    25.8256

          k = 0.0000 0.0000 0.0769 (  5566 PWs)   bands (ev):

   -34.4757 -27.0949 -27.0863 -27.0863 -10.7473 -10.7264 -10.7264  13.0440
    15.8023  15.8506  19.7686  19.7686  19.8426  23.5898  23.7801  25.5275
    25.5275

          k = 0.0000 0.0000 0.1538 (  5594 PWs)   bands (ev):

   -34.4726 -27.1157 -27.0835 -27.0835 -10.8050 -10.7265 -10.7265  13.4481
    15.9829  16.1675  19.6903  19.6903  19.9718  23.1930  23.9090  24.8524
    24.8524

          k = 0.0000 0.0000 0.2308 (  5594 PWs)   bands (ev):

   -34.4682 -27.1449 -27.0796 -27.0796 -10.8856 -10.7265 -10.7265  14.0639
    16.2676  16.6530  19.5881  19.5881  20.1715  22.6160  24.0558  24.1072
    24.1072

          k = 0.0000 0.0000 0.3077 (  5578 PWs)   bands (ev):

   -34.4636 -27.1757 -27.0754 -27.0754 -10.9701 -10.7267 -10.7267  14.7919
    16.6244  17.2452  19.4903  19.4903  20.4129  21.9636  23.4573  23.4573
    24.0725

          k = 0.0000 0.0000 0.3846 (  5582 PWs)   bands (ev):

   -34.4598 -27.2011 -27.0720 -27.0720 -11.0393 -10.7268 -10.7268  15.4696
    16.9884  17.8505  19.4181  19.4181  20.6462  21.3649  22.9850  22.9850
    23.7488

          k = 0.0000 0.0000 0.4615 (  5586 PWs)   bands (ev):

   -34.4576 -27.2154 -27.0700 -27.0700 -11.0781 -10.7268 -10.7268  15.8879
    17.2394  18.2887  19.3811  19.3811  20.7971  20.9850  22.7368  22.7368
    23.2922

          k = 0.0000 0.0769 0.0769 (  5585 PWs)   bands (ev):

   -34.4745 -27.0959 -27.0921 -27.0853 -10.7523 -10.7418 -10.7263  13.1815
    15.8852  15.9373  19.6728  19.7313  19.9458  23.5622  23.7355  25.1269
    25.2369

          k = 0.0000 0.0769 0.1538 (  5578 PWs)   bands (ev):

   -34.4711 -27.1156 -27.0911 -27.0826 -10.8052 -10.7446 -10.7260  13.5772
    16.0685  16.2452  19.5506  19.6318  20.0918  23.2434  23.8425  24.4844
    24.5860

          k = 0.0000 0.0769 0.2308 (  5601 PWs)   bands (ev):

   -34.4664 -27.1451 -27.0878 -27.0787 -10.8839 -10.7439 -10.7256  14.1775
    16.3446  16.7262  19.4366  19.5019  20.2429  22.7261  23.8495  23.8620
    24.0477

          k = 0.0000 0.0769 0.3077 (  5597 PWs)   bands (ev):

   -34.4615 -27.1763 -27.0842 -27.0746 -10.9666 -10.7430 -10.7252  14.8831
    16.6888  17.2959  19.3468  19.3893  20.3651  22.1370  23.2726  23.4026
    24.1112

          k = 0.0000 0.0769 0.3846 (  5583 PWs)   bands (ev):

   -34.4573 -27.2020 -27.0813 -27.0711 -11.0344 -10.7423 -10.7248  15.5390
    17.0419  17.8011  19.2915  19.3763  20.4239  21.6063  22.8566  23.1766
    23.8899

          k = 0.0000 0.0769 0.4615 (  5593 PWs)   bands (ev):

   -34.4550 -27.2164 -27.0796 -27.0692 -11.0724 -10.7418 -10.7246  15.9479
    17.2923  18.0406  19.2683  19.5026  20.4309  21.2885  22.6286  23.4882
    24.3972

          k = 0.0000 0.1538 0.1538 (  5583 PWs)   bands (ev):

   -34.4671 -27.1195 -27.1077 -27.0799 -10.8165 -10.7839 -10.7247  13.9452
    16.2695  16.5167  19.3402  19.4803  20.2296  23.2652  23.7594  23.9480
    24.0042

          k = 0.0000 0.1538 0.2308 (  5587 PWs)   bands (ev):

   -34.4615 -27.1460 -27.1099 -27.0761 -10.8802 -10.7907 -10.7229  14.4919
    16.5258  16.9806  19.1597  19.2991  20.2522  22.9783  23.4184  23.5789
    23.9054

          k = 0.0000 0.1538 0.3077 (  5580 PWs)   bands (ev):

   -34.4556 -27.1778 -27.1084 -27.0721 -10.9571 -10.7880 -10.7210  15.1143
    16.8261  17.4934  19.0387  19.2108  20.1251  22.5200  23.0032  23.4891
    24.0861

          k = 0.0000 0.1538 0.3846 (  5583 PWs)   bands (ev):

   -34.4507 -27.2043 -27.1069 -27.0688 -11.0208 -10.7850 -10.7195  15.6758
    17.1357  17.7535  18.9868  19.4477  19.9168  22.1165  22.7325  23.6465
    24.0720

          k = 0.0000 0.1538 0.4615 (  5586 PWs)   bands (ev):

   -34.4479 -27.2192 -27.1060 -27.0670 -11.0566 -10.7833 -10.7186  16.0238
    17.4056  17.6708  18.9842  19.7569  19.8792  21.9404  22.5173  23.8400
    23.8979

          k = 0.0000 0.2308 0.2308 (  5584 PWs)   bands (ev):

   -34.4546 -27.1527 -27.1356 -27.0726 -10.8891 -10.8422 -10.7192  14.9290
    16.7194  17.4478  18.9028  19.1070  20.0495  22.9666  23.2138  23.5730
    23.8219

          k = 0.0000 0.2308 0.3077 (  5581 PWs)   bands (ev):

   -34.4473 -27.1804 -27.1419 -27.0687 -10.9450 -10.8496 -10.7152  15.3794
    16.8703  17.9704  18.7205  19.1576  19.7014  22.6883  23.1210  23.8323
    23.9736

          k = 0.0000 0.2308 0.3846 (  5577 PWs)   bands (ev):

   -34.4412 -27.2076 -27.1429 -27.0656 -11.0018 -10.8447 -10.7119  15.7492
    16.9240  18.2164  18.6362  19.3468  19.7520  22.4839  22.9696  24.1224
    24.2417

          k = 0.0000 0.2308 0.4615 (  5595 PWs)   bands (ev):

   -34.4378 -27.2232 -27.1432 -27.0638 -11.0345 -10.8412 -10.7101  15.9718
    16.8947  18.2862  18.6359  19.1046  20.4722  22.4013  22.7622  24.1334
    24.6780

          k = 0.0000 0.3077 0.3077 (  5582 PWs)   bands (ev):

   -34.4385 -27.1879 -27.1727 -27.0651 -10.9439 -10.9027 -10.7090  15.5907
    16.7545  18.4727  18.6819  19.2352  19.3877  22.7138  23.3997  23.9088
    24.3240

          k = 0.0000 0.3077 0.3846 (  5582 PWs)   bands (ev):

   -34.4312 -27.2114 -27.1807 -27.0621 -10.9823 -10.9069 -10.7039  15.7385
    16.5647  18.3350  18.8349  19.1408  20.1864  22.7277  23.4371  24.0387
    24.8614

          k = 0.0000 0.3077 0.4615 (  5579 PWs)   bands (ev):

   -34.4270 -27.2275 -27.1824 -27.0604 -11.0111 -10.9020 -10.7010  15.8326
    16.4142  18.3132  18.5713  19.3107  21.1798  22.5110  23.3915  24.2249
    25.3620

          k = 0.0000 0.3846 0.3846 (  5576 PWs)   bands (ev):

   -34.4228 -27.2170 -27.2094 -27.0592 -10.9724 -10.9518 -10.6973  15.7072
    16.2544  18.1390  18.4402  20.1477  20.7469  22.9982  23.7602  23.8925
    25.4337

          k = 0.0000 0.3846 0.4615 (  5582 PWs)   bands (ev):

   -34.4181 -27.2311 -27.2147 -27.0576 -10.9918 -10.9520 -10.6935  15.6982
    16.0677  18.0750  18.1957  20.5531  21.7927  22.7632  23.8713  23.9713
    25.8289

          k = 0.0000 0.4615 0.4615 (  5580 PWs)   bands (ev):

   -34.4130 -27.2335 -27.2325 -27.0560 -10.9818 -10.9792 -10.6892  15.6221
    15.8852  17.9587  17.9933  21.6946  22.2033  23.0758  23.3277  24.1276
    25.4675

          k = 0.0769 0.0769 0.0769 (  5578 PWs)   bands (ev):

   -34.4732 -27.0948 -27.0948 -27.0896 -10.7561 -10.7418 -10.7418  13.3170
    15.9952  15.9952  19.6353  19.6353  20.0313  23.6216  23.6216  24.5935
    25.5514

          k = 0.0769 0.0769 0.1538 (  5594 PWs)   bands (ev):

   -34.4696 -27.1153 -27.0920 -27.0886 -10.8050 -10.7463 -10.7420  13.7062
    16.1642  16.3114  19.4820  19.5332  20.1518  23.3001  23.7783  23.9717
    24.8807

          k = 0.0769 0.0769 0.2308 (  5603 PWs)   bands (ev):

   -34.4646 -27.1451 -27.0880 -27.0859 -10.8820 -10.7438 -10.7423  14.2941
    16.4295  16.7903  19.3468  19.3921  20.2292  22.8286  23.4768  23.9772
    24.1451

          k = 0.0769 0.0769 0.3077 (  5599 PWs)   bands (ev):

   -34.4593 -27.1767 -27.0837 -27.0831 -10.9631 -10.7426 -10.7407  14.9817
    16.7600  17.3388  19.2399  19.2838  20.2392  22.2948  23.2207  23.5097
    24.0773

          k = 0.0769 0.0769 0.3846 (  5596 PWs)   bands (ev):

   -34.4550 -27.2027 -27.0807 -27.0802 -11.0298 -10.7429 -10.7382  15.6216
    17.0954  17.7617  19.1001  19.4108  20.2069  21.8144  23.0533  23.1264
    23.9478

          k = 0.0769 0.0769 0.4615 (  5582 PWs)   bands (ev):

   -34.4525 -27.2173 -27.0793 -27.0782 -11.0671 -10.7430 -10.7367  16.0275
    17.3270  17.8998  19.0043  19.7252  20.1667  21.5219  22.8158  22.9359
    23.8800

          k = 0.0769 0.1538 0.1538 (  5584 PWs)   bands (ev):

   -34.4655 -27.1184 -27.1081 -27.0876 -10.8147 -10.7841 -10.7425  14.0732
    16.3798  16.5631  19.2898  19.3753  20.1863  23.3400  23.5151  23.7034
    24.5323

          k = 0.0769 0.1538 0.2308 (  5596 PWs)   bands (ev):

   -34.4597 -27.1456 -27.1096 -27.0845 -10.8778 -10.7901 -10.7404  14.6169
    16.6297  17.0221  19.1018  19.1949  20.0832  23.0688  23.3194  23.8523
    23.9518

          k = 0.0769 0.1538 0.3077 (  5590 PWs)   bands (ev):

   -34.4535 -27.1778 -27.1077 -27.0811 -10.9538 -10.7870 -10.7378  15.2339
    16.9181  17.5116  18.9613  19.1154  19.8947  22.6677  23.2141  23.5906
    24.0561

          k = 0.0769 0.1538 0.3846 (  5593 PWs)   bands (ev):

   -34.4483 -27.2046 -27.1061 -27.0781 -11.0170 -10.7841 -10.7353  15.7934
    17.2047  17.7114  18.8370  19.4123  19.7611  22.2945  22.9097  23.5962
    24.1707

          k = 0.0769 0.1538 0.4615 (  5592 PWs)   bands (ev):

   -34.4454 -27.2197 -27.1052 -27.0764 -11.0524 -10.7825 -10.7338  16.1513
    17.4175  17.6230  18.7607  19.5872  20.0292  22.0946  22.6540  23.3415
    24.4955

          k = 0.0769 0.2308 0.2308 (  5595 PWs)   bands (ev):

   -34.4526 -27.1515 -27.1358 -27.0813 -10.8853 -10.8427 -10.7366  15.0652
    16.8305  17.4748  18.8495  19.0043  19.7813  23.2183  23.3004  23.7228
    23.8101

          k = 0.0769 0.2308 0.3077 (  5579 PWs)   bands (ev):

   -34.4452 -27.1799 -27.1415 -27.0778 -10.9420 -10.8493 -10.7323  15.5242
    16.9749  17.9686  18.6640  19.0543  19.4546  22.9537  23.1778  23.9303
    24.0509

          k = 0.0769 0.2308 0.3846 (  5578 PWs)   bands (ev):

   -34.4390 -27.2074 -27.1420 -27.0748 -10.9991 -10.8443 -10.7285  15.8992
    17.0038  18.1579  18.5528  19.1712  19.7201  22.6798  23.0148  23.9411
    24.5837

          k = 0.0769 0.2308 0.4615 (  5586 PWs)   bands (ev):

   -34.4355 -27.2231 -27.1421 -27.0731 -11.0318 -10.8410 -10.7263  16.1302
    16.9401  18.2103  18.5104  19.0258  20.4839  22.5136  22.8357  23.7446
    25.1274

          k = 0.0769 0.3077 0.3077 (  5582 PWs)   bands (ev):

   -34.4364 -27.1866 -27.1725 -27.0742 -10.9408 -10.9035 -10.7263  15.7505
    16.8513  18.4164  18.6926  19.0377  19.2662  22.8812  23.4501  23.8986
    24.5754

          k = 0.0769 0.3077 0.3846 (  5584 PWs)   bands (ev):

   -34.4290 -27.2106 -27.1798 -27.0713 -10.9808 -10.9072 -10.7212  15.9021
    16.6474  18.2829  18.6917  19.1221  20.0936  22.8123  23.4803  23.9593
    25.1749

          k = 0.0769 0.3077 0.4615 (  5588 PWs)   bands (ev):

   -34.4249 -27.2269 -27.1812 -27.0696 -11.0101 -10.9025 -10.7182  15.9998
    16.4835  18.2454  18.4821  19.2753  21.1001  22.5609  23.4568  23.9298
    25.4984

          k = 0.0769 0.3846 0.3846 (  5593 PWs)   bands (ev):

   -34.4208 -27.2157 -27.2086 -27.0683 -10.9717 -10.9530 -10.7150  15.8739
    16.3388  18.0999  18.3612  20.1179  20.6226  22.9706  23.8083  23.8225
    25.6956

          k = 0.0769 0.3846 0.4615 (  5594 PWs)   bands (ev):

   -34.4161 -27.2300 -27.2134 -27.0667 -10.9921 -10.9530 -10.7116  15.8680
    16.1502  18.0343  18.1462  20.4942  21.6771  22.7248  23.7315  23.9461
    25.5239

          k = 0.0769 0.4615 0.4615 (  5585 PWs)   bands (ev):

   -34.4111 -27.2321 -27.2312 -27.0650 -10.9829 -10.9805 -10.7078  15.7938
    15.9729  17.9268  17.9581  21.6414  22.1052  22.9186  23.1145  24.1854
    25.4021

          k = 0.1538 0.1538 0.1538 (  5581 PWs)   bands (ev):

   -34.4609 -27.1154 -27.1154 -27.1027 -10.8164 -10.7847 -10.7847  14.4353
    16.6975  16.6975  19.1524  19.1524  19.9868  23.3505  23.5397  23.5400
    24.9600

          k = 0.1538 0.1538 0.2308 (  5593 PWs)   bands (ev):

   -34.4545 -27.1447 -27.1111 -27.1048 -10.8717 -10.7906 -10.7856  14.9638
    16.9055  17.1679  18.9432  18.9623  19.6630  23.2877  23.5036  23.7925
    24.2473

          k = 0.1538 0.1538 0.3077 (  5605 PWs)   bands (ev):

   -34.4476 -27.1779 -27.1066 -27.1047 -10.9452 -10.7866 -10.7814  15.5493
    17.1596  17.5862  18.7575  18.9198  19.4198  22.9877  23.6404  23.7153
    24.0807

          k = 0.1538 0.1538 0.3846 (  5596 PWs)   bands (ev):

   -34.4419 -27.2055 -27.1045 -27.1029 -11.0064 -10.7874 -10.7729  16.0742
    17.4149  17.5802  18.5701  19.1688  19.5922  22.7041  23.2161  23.4612
    24.5880

          k = 0.1538 0.1538 0.4615 (  5604 PWs)   bands (ev):

   -34.4387 -27.2211 -27.1043 -27.1008 -11.0408 -10.7878 -10.7681  16.4364
    17.3642  17.5950  18.4407  19.2185  20.2235  22.5256  22.9445  23.0032
    25.0006

          k = 0.1538 0.2308 0.2308 (  5581 PWs)   bands (ev):

   -34.4471 -27.1483 -27.1366 -27.1052 -10.8750 -10.8440 -10.7843  15.4448
    17.1566  17.5509  18.7072  18.7630  19.2074  23.4475  23.7664  23.8487
    24.0810

          k = 0.1538 0.2308 0.3077 (  5592 PWs)   bands (ev):

   -34.4393 -27.1785 -27.1400 -27.1027 -10.9342 -10.8480 -10.7793  15.9257
    17.2843  17.9424  18.5150  18.7939  18.9706  23.3387  23.4852  23.8908
    24.5398

          k = 0.1538 0.2308 0.3846 (  5597 PWs)   bands (ev):

   -34.4328 -27.2069 -27.1396 -27.1002 -10.9918 -10.8434 -10.7739  16.3056
    17.2294  17.9869  18.3547  18.8062  19.6468  23.0951  23.1970  23.6953
    25.2254

          k = 0.1538 0.2308 0.4615 (  5611 PWs)   bands (ev):

   -34.4292 -27.2230 -27.1393 -27.0988 -11.0245 -10.8409 -10.7704  16.5640
    17.0395  18.0416  18.2427  18.8163  20.4899  22.7511  23.1037  23.3271
    25.2005

          k = 0.1538 0.3077 0.3077 (  5603 PWs)   bands (ev):

   -34.4305 -27.1832 -27.1722 -27.0994 -10.9324 -10.9058 -10.7738  16.2056
    17.1286  18.2759  18.5988  18.7098  18.9594  23.1992  23.6791  23.8431
    25.2003

          k = 0.1538 0.3077 0.3846 (  5602 PWs)   bands (ev):

   -34.4232 -27.2085 -27.1774 -27.0966 -10.9769 -10.9079 -10.7688  16.3634
    16.8832  18.1425  18.3906  19.0045  19.8885  23.0006  23.6261  23.8238
    25.2460

          k = 0.1538 0.3077 0.4615 (  5598 PWs)   bands (ev):

   -34.4190 -27.2251 -27.1780 -27.0950 -11.0074 -10.9038 -10.7657  16.4731
    16.6756  18.0714  18.2870  19.1397  20.9025  22.6756  23.4840  23.7054
    25.2964

          k = 0.1538 0.3846 0.3846 (  5590 PWs)   bands (ev):

   -34.4151 -27.2120 -27.2065 -27.0935 -10.9697 -10.9562 -10.7641  16.3385
    16.5926  17.9957  18.1674  20.0277  20.2903  22.9778  23.5718  24.0289
    25.3020

          k = 0.1538 0.3846 0.4615 (  5593 PWs)   bands (ev):

   -34.4106 -27.2269 -27.2099 -27.0918 -10.9933 -10.9558 -10.7614  16.3319
    16.4094  17.9259  18.0231  20.3101  21.3478  22.6996  23.3465  24.1378
    25.3371

          k = 0.1538 0.4615 0.4615 (  5608 PWs)   bands (ev):

   -34.4058 -27.2283 -27.2275 -27.0900 -10.9861 -10.9843 -10.7589  16.2142
    16.3005  17.8422  17.8663  21.4424  21.7139  22.7389  22.7776  24.3534
    25.3586

          k = 0.2308 0.2308 0.2308 (  5602 PWs)   bands (ev):

   -34.4393 -27.1437 -27.1437 -27.1328 -10.8657 -10.8459 -10.8459  15.9676
    17.6619  17.6619  18.5184  18.5184  18.6357  23.6733  23.6736  24.4358
    24.5516

          k = 0.2308 0.2308 0.3077 (  5591 PWs)   bands (ev):

   -34.4310 -27.1768 -27.1389 -27.1364 -10.9244 -10.8480 -10.8421  16.4537
    17.7855  17.8316  18.3303  18.4124  18.6980  23.5132  23.7470  23.9520
    24.7492

          k = 0.2308 0.2308 0.3846 (  5608 PWs)   bands (ev):

   -34.4241 -27.2063 -27.1372 -27.1348 -10.9819 -10.8498 -10.8294  16.7595
    17.4737  17.8959  18.1795  18.4533  19.6234  23.3039  23.4299  23.6836
    25.0227

          k = 0.2308 0.2308 0.4615 (  5610 PWs)   bands (ev):

   -34.4202 -27.2229 -27.1377 -27.1325 -11.0143 -10.8507 -10.8221  16.9328
    17.1920  17.9713  18.0861  18.5442  20.5347  22.8557  23.1621  23.5702
    25.1962

          k = 0.2308 0.3077 0.3077 (  5604 PWs)   bands (ev):

   -34.4222 -27.1782 -27.1718 -27.1347 -10.9207 -10.9091 -10.8403  16.8376
    17.5563  18.0972  18.1524  18.6305  18.7198  23.4122  23.6877  24.1116
    24.7816

          k = 0.2308 0.3077 0.3846 (  5612 PWs)   bands (ev):

   -34.4149 -27.2057 -27.1738 -27.1321 -10.9720 -10.9087 -10.8350  16.9034
    17.3362  17.9489  18.1271  18.7817  19.7151  23.1738  23.4553  24.0986
    25.0269

          k = 0.2308 0.3077 0.4615 (  5603 PWs)   bands (ev):

   -34.4107 -27.2228 -27.1735 -27.1306 -11.0037 -10.9062 -10.8313  16.8402
    17.2344  17.8666  18.1430  18.8962  20.6983  22.7565  23.2274  24.0585
    25.2181

          k = 0.2308 0.3846 0.3846 (  5609 PWs)   bands (ev):

   -34.4072 -27.2068 -27.2035 -27.1289 -10.9671 -10.9607 -10.8326  16.7824
    17.2139  17.8587  17.9615  19.8822  19.8851  23.0429  23.2779  24.3553
    25.1406

          k = 0.2308 0.3846 0.4615 (  5609 PWs)   bands (ev):

   -34.4028 -27.2227 -27.2049 -27.1270 -10.9950 -10.9597 -10.8309  16.6716
    17.1466  17.7842  17.9005  20.0128  20.9407  22.6886  23.0873  24.4367
    25.2770

          k = 0.2308 0.4615 0.4615 (  5608 PWs)   bands (ev):

   -34.3984 -27.2228 -27.2224 -27.1250 -10.9905 -10.9896 -10.8303  16.5667
    17.0910  17.7320  17.7547  21.0680  21.1553  22.5041  22.7784  24.6117
    25.3581

          k = 0.3077 0.3077 0.3077 (  5611 PWs)   bands (ev):

   -34.4134 -27.1730 -27.1730 -27.1704 -10.9126 -10.9126 -10.9058  17.2094
    17.9238  17.9238  17.9869  18.7181  18.7181  23.4503  23.4503  24.5790
    24.5790

          k = 0.3077 0.3077 0.3846 (  5623 PWs)   bands (ev):

   -34.4060 -27.2029 -27.1709 -27.1686 -10.9678 -10.9155 -10.8976  17.0939
    17.7690  17.7903  18.2811  18.7074  19.6384  23.2021  23.2432  24.4956
    24.9746

          k = 0.3077 0.3077 0.4615 (  5618 PWs)   bands (ev):

   -34.4019 -27.2202 -27.1707 -27.1662 -10.9999 -10.9172 -10.8919  16.9679
    17.6515  17.7186  18.4841  18.6974  20.5901  22.7130  23.1326  24.4633
    25.2130

          k = 0.3077 0.3846 0.3846 (  5622 PWs)   bands (ev):

   -34.3987 -27.2012 -27.2003 -27.1663 -10.9656 -10.9646 -10.9044  17.0443
    17.6855  17.7252  18.3189  19.5629  19.7061  23.0373  23.0567  24.7362
    25.0928

          k = 0.3077 0.3846 0.4615 (  5623 PWs)   bands (ev):

   -34.3946 -27.2182 -27.1996 -27.1643 -10.9969 -10.9640 -10.9038  16.9737
    17.6309  17.6560  18.3044  19.6756  20.5961  22.6201  22.9765  24.7842
    25.2730

          k = 0.3077 0.4615 0.4615 (  5632 PWs)   bands (ev):

   -34.3904 -27.2171 -27.2170 -27.1620 -10.9953 -10.9952 -10.9054  16.9450
    17.6111  17.6268  18.1439  20.6375  20.6454  22.4139  22.7705  24.9211
    25.3734

          k = 0.3846 0.3846 0.3846 (  5640 PWs)   bands (ev):

   -34.3917 -27.1982 -27.1966 -27.1966 -10.9696 -10.9696 -10.9562  17.1588
    17.6237  17.6237  19.2675  19.5451  19.5451  22.8874  22.8874  25.0863
    25.0863

          k = 0.3846 0.3846 0.4615 (  5622 PWs)   bands (ev):

   -34.3877 -27.2145 -27.1962 -27.1939 -10.9987 -10.9719 -10.9592  17.1783
    17.5701  17.5868  19.3247  19.4491  20.3772  22.5400  22.8193  25.0890
    25.3037

          k = 0.3846 0.4615 0.4615 (  5630 PWs)   bands (ev):

   -34.3838 -27.2125 -27.2123 -27.1925 -11.0001 -10.9992 -10.9670  17.2590
    17.5439  17.5493  19.2310  20.2780  20.2891  22.3870  22.6377  25.2148
    25.3902

          k = 0.4615 0.4615 0.4615 (  5592 PWs)   bands (ev):

   -34.3801 -27.2100 -27.2096 -27.2096 -11.0028 -11.0028 -11.0003  17.4307
    17.5096  17.5096  20.0859  20.0983  20.0983  22.3812  22.3812  25.4004
    25.4004

     the Fermi energy is    22.7099 ev

!    total energy              =    -300.91051161 Ry
     estimated scf accuracy    <          1.7E-09 Ry
     smearing contrib. (-TS)   =      -0.00031104 Ry
     internal energy E=F+TS    =    -300.91020057 Ry

     convergence has been achieved in  26 iterations

     negative rho (up, down):  3.115E-01 0.000E+00

     Forces acting on atoms (cartesian axes, Ry/au):

     atom    1 type  1   force =     0.00000000    0.00000000    0.00000000
     atom    2 type  2   force =     0.00000000    0.00000000    0.00000000

     Total force =     0.000000     Total SCF correction =     0.000000


     Computing stress (Cartesian axis) and pressure


     negative rho (up, down):  3.115E-01 0.000E+00
          total   stress  (Ry/bohr**3)                   (kbar)     P=      269.04
   0.00182890   0.00000000   0.00000000          269.04        0.00        0.00
   0.00000000   0.00182890   0.00000000            0.00      269.04        0.00
   0.00000000   0.00000000   0.00182890            0.00        0.00      269.04


     Wentzcovitch Damped Cell Dynamics Minimization:
     convergence thresholds EPSE = 7.35E-05  EPSF = 1.94E-04

     Entering Dynamics;  it =     1   time =  0.00000 pico-seconds

  new lattice vectors (alat unit) :
   1.002966327   0.000000000   0.000000000
   0.000000000   1.002966327   0.000000000
   0.000000000   0.000000000   1.002966327
  new unit-cell volume =    181.9993 (a.u.)^3
  new positions in cryst coord
Ti       0.000000000   0.000000000   0.000000000
Ir       0.500000000   0.500000000   0.500000000
  new positions in cart coord (alat unit)
Ti       0.000000000   0.000000000   0.000000000
Ir       0.501483163   0.501483163   0.501483163

     Ekin =     0.00000000 Ry    T =    0.0 K  Etot =     -300.91051161
     new unit-cell volume =    181.99928 a.u.^3 (    26.96951 Ang^3 )
     density =     23.84644 g/cm^3

CELL_PARAMETERS (alat=  5.65028300)
   1.002966327   0.000000000   0.000000000
   0.000000000   1.002966327   0.000000000
   0.000000000   0.000000000   1.002966327

ATOMIC_POSITIONS (crystal)
Ti            0.0000000000        0.0000000000        0.0000000000    0   0   0
Ir            0.5000000000        0.5000000000        0.5000000000    0   0   0



     Writing output data file ./TiIr.Pm3m.save/
     NEW-OLD atomic charge density approx. for the potential

     negative rho (up, down):  3.150E-01 0.000E+00
     extrapolated charge   27.22558, renormalised to   27.00000

     total cpu time spent up to now is       21.6 secs

     Self-consistent Calculation

     iteration #  1     ecut=   150.00 Ry     beta= 0.70
     CG style diagonalization
     ethr =  1.00E-06,  avg # of iterations =  5.4

     negative rho (up, down):  3.077E-01 0.000E+00

     total cpu time spent up to now is       22.7 secs

     total energy              =    -300.90362806 Ry
     estimated scf accuracy    <       0.00830334 Ry

     iteration #  2     ecut=   150.00 Ry     beta= 0.70
     CG style diagonalization
     ethr =  3.08E-05,  avg # of iterations =  4.7

     negative rho (up, down):  3.104E-01 0.000E+00

     total cpu time spent up to now is       23.5 secs

     total energy              =    -300.90488615 Ry
     estimated scf accuracy    <       0.07850503 Ry

     iteration #  3     ecut=   150.00 Ry     beta= 0.70
     CG style diagonalization
     ethr =  3.08E-05,  avg # of iterations =  3.9

     negative rho (up, down):  3.107E-01 0.000E+00

     total cpu time spent up to now is       24.3 secs

     total energy              =    -300.91233011 Ry
     estimated scf accuracy    <       0.01352224 Ry

     iteration #  4     ecut=   150.00 Ry     beta= 0.70
     CG style diagonalization
     ethr =  3.08E-05,  avg # of iterations =  3.1

     negative rho (up, down):  3.110E-01 0.000E+00

     total cpu time spent up to now is       24.9 secs

     total energy              =    -300.91348822 Ry
     estimated scf accuracy    <       0.00172575 Ry

     iteration #  5     ecut=   150.00 Ry     beta= 0.70
     CG style diagonalization
     ethr =  6.39E-06,  avg # of iterations =  3.1

     negative rho (up, down):  3.114E-01 0.000E+00

     total cpu time spent up to now is       25.5 secs

     total energy              =    -300.91325199 Ry
     estimated scf accuracy    <       0.00106114 Ry

     iteration #  6     ecut=   150.00 Ry     beta= 0.70
     CG style diagonalization
     ethr =  3.93E-06,  avg # of iterations =  3.2

     negative rho (up, down):  3.117E-01 0.000E+00

     total cpu time spent up to now is       26.1 secs

     total energy              =    -300.91324899 Ry
     estimated scf accuracy    <       0.00026275 Ry

     iteration #  7     ecut=   150.00 Ry     beta= 0.70
     CG style diagonalization
     ethr =  9.73E-07,  avg # of iterations =  3.3

     negative rho (up, down):  3.118E-01 0.000E+00

     total cpu time spent up to now is       26.7 secs

     total energy              =    -300.91327525 Ry
     estimated scf accuracy    <       0.00001595 Ry

     iteration #  8     ecut=   150.00 Ry     beta= 0.70
     CG style diagonalization
     ethr =  5.91E-08,  avg # of iterations =  4.2

     negative rho (up, down):  3.118E-01 0.000E+00

     total cpu time spent up to now is       27.5 secs

     total energy              =    -300.91328947 Ry
     estimated scf accuracy    <       0.00000448 Ry

     iteration #  9     ecut=   150.00 Ry     beta= 0.70
     CG style diagonalization
     ethr =  1.66E-08,  avg # of iterations =  3.2

     negative rho (up, down):  3.117E-01 0.000E+00

     total cpu time spent up to now is       28.1 secs

     total energy              =    -300.91328787 Ry
     estimated scf accuracy    <       0.00000712 Ry

     iteration # 10     ecut=   150.00 Ry     beta= 0.70
     CG style diagonalization
     ethr =  1.66E-08,  avg # of iterations =  3.1

     negative rho (up, down):  3.117E-01 0.000E+00

     total cpu time spent up to now is       28.7 secs

     total energy              =    -300.91328758 Ry
     estimated scf accuracy    <       0.00000139 Ry

     iteration # 11     ecut=   150.00 Ry     beta= 0.70
     CG style diagonalization
     ethr =  5.15E-09,  avg # of iterations =  3.4

     negative rho (up, down):  3.117E-01 0.000E+00

     total cpu time spent up to now is       29.3 secs

     total energy              =    -300.91328789 Ry
     estimated scf accuracy    <       0.00000004 Ry

     iteration # 12     ecut=   150.00 Ry     beta= 0.70
     CG style diagonalization
     ethr =  1.56E-10,  avg # of iterations =  3.9

     negative rho (up, down):  3.117E-01 0.000E+00

     total cpu time spent up to now is       30.1 secs

     total energy              =    -300.91328791 Ry
     estimated scf accuracy    <       0.00000008 Ry

     iteration # 13     ecut=   150.00 Ry     beta= 0.70
     CG style diagonalization
     ethr =  1.56E-10,  avg # of iterations =  3.1

     negative rho (up, down):  3.117E-01 0.000E+00

     total cpu time spent up to now is       30.7 secs

     total energy              =    -300.91328792 Ry
     estimated scf accuracy    <       0.00000002 Ry

     iteration # 14     ecut=   150.00 Ry     beta= 0.70
     CG style diagonalization
     ethr =  5.75E-11,  avg # of iterations =  4.1

     negative rho (up, down):  3.117E-01 0.000E+00

     total cpu time spent up to now is       31.4 secs

     total energy              =    -300.91328782 Ry
     estimated scf accuracy    <       0.00000053 Ry

     iteration # 15     ecut=   150.00 Ry     beta= 0.70
     CG style diagonalization
     ethr =  5.75E-11,  avg # of iterations =  4.2

     negative rho (up, down):  3.117E-01 0.000E+00

     total cpu time spent up to now is       32.2 secs

     total energy              =    -300.91328788 Ry
     estimated scf accuracy    <       0.00000019 Ry

     iteration # 16     ecut=   150.00 Ry     beta= 0.70
     CG style diagonalization
     ethr =  5.75E-11,  avg # of iterations =  3.5

     negative rho (up, down):  3.117E-01 0.000E+00

     total cpu time spent up to now is       32.9 secs

     total energy              =    -300.91328791 Ry
     estimated scf accuracy    <       0.00000001 Ry

     iteration # 17     ecut=   150.00 Ry     beta= 0.70
     CG style diagonalization
     ethr =  3.71E-11,  avg # of iterations =  3.1

     negative rho (up, down):  3.117E-01 0.000E+00

     total cpu time spent up to now is       33.5 secs

     End of self-consistent calculation

          k = 0.0000 0.0000 0.0000 (  5575 PWs)   bands (ev):

   -34.7305 -27.2927 -27.2927 -27.2927 -10.9808 -10.9808 -10.9808  12.7226
    15.5904  15.5904  19.5948  19.5948  19.5948  23.4850  23.4850  25.5490
    25.5490

          k = 0.0000 0.0000 0.0767 (  5566 PWs)   bands (ev):

   -34.7294 -27.3000 -27.2917 -27.2917 -11.0010 -10.9808 -10.9808  12.8614
    15.6515  15.6986  19.5656  19.5656  19.6388  23.3459  23.5328  25.2556
    25.2557

          k = 0.0000 0.0000 0.1534 (  5594 PWs)   bands (ev):

   -34.7263 -27.3202 -27.2890 -27.2890 -11.0568 -10.9808 -10.9808  13.2618
    15.8304  16.0099  19.4881  19.4881  19.7667  22.9560  23.6592  24.5904
    24.5904

          k = 0.0000 0.0000 0.2301 (  5594 PWs)   bands (ev):

   -34.7220 -27.3486 -27.2853 -27.2853 -11.1346 -10.9808 -10.9808  13.8728
    16.1125  16.4860  19.3866  19.3866  19.9640  22.3885  23.8025  23.8553
    23.8553

          k = 0.0000 0.0000 0.3068 (  5578 PWs)   bands (ev):

   -34.7175 -27.3786 -27.2813 -27.2813 -11.2162 -10.9807 -10.9807  14.5971
    16.4660  17.0646  19.2893  19.2893  20.2026  21.7459  23.2141  23.2141
    23.8155

          k = 0.0000 0.0000 0.3835 (  5582 PWs)   bands (ev):

   -34.7137 -27.4033 -27.2779 -27.2779 -11.2831 -10.9807 -10.9807  15.2745
    16.8263  17.6527  19.2171  19.2171  20.4329  21.1557  22.7482  22.7482
    23.4907

          k = 0.0000 0.0000 0.4602 (  5586 PWs)   bands (ev):

   -34.7116 -27.4171 -27.2761 -27.2761 -11.3206 -10.9807 -10.9807  15.6945
    17.0748  18.0762  19.1801  19.1801  20.5819  20.7810  22.5034  22.5034
    23.0369

          k = 0.0000 0.0767 0.0767 (  5585 PWs)   bands (ev):

   -34.7282 -27.3009 -27.2974 -27.2908 -11.0057 -10.9957 -10.9807  12.9976
    15.7332  15.7841  19.4714  19.5287  19.7404  23.3188  23.4890  24.8612
    24.9694

          k = 0.0000 0.0767 0.1534 (  5578 PWs)   bands (ev):

   -34.7250 -27.3201 -27.2964 -27.2881 -11.0569 -10.9984 -10.9803  13.3899
    15.9147  16.0868  19.3507  19.4301  19.8844  23.0054  23.5940  24.2278
    24.3276

          k = 0.0000 0.0767 0.2301 (  5601 PWs)   bands (ev):

   -34.7203 -27.3488 -27.2932 -27.2844 -11.1329 -10.9976 -10.9798  13.9858
    16.1881  16.5585  19.2378  19.3012  20.0336  22.4966  23.5998  23.6139
    23.7957

          k = 0.0000 0.0767 0.3068 (  5597 PWs)   bands (ev):

   -34.7155 -27.3790 -27.2898 -27.2804 -11.2128 -10.9966 -10.9793  14.6883
    16.5289  17.1151  19.1483  19.1892  20.1545  21.9164  23.0307  23.1604
    23.8550

          k = 0.0000 0.0767 0.3835 (  5583 PWs)   bands (ev):

   -34.7114 -27.4040 -27.2869 -27.2771 -11.2784 -10.9958 -10.9789  15.3442
    16.8784  17.6057  19.0927  19.1749  20.2133  21.3931  22.6197  22.9371
    23.6322

          k = 0.0000 0.0767 0.4602 (  5593 PWs)   bands (ev):

   -34.7092 -27.4180 -27.2853 -27.2753 -11.3152 -10.9953 -10.9787  15.7551
    17.1263  17.8368  19.0691  19.2961  20.2209  21.0792  22.3937  22.8960
    23.2345

          k = 0.0000 0.1534 0.1534 (  5583 PWs)   bands (ev):

   -34.7211 -27.3237 -27.3127 -27.2855 -11.0676 -11.0365 -10.9790  13.7551
    16.1123  16.3547  19.1434  19.2800  20.0197  23.0266  23.5125  23.6990
    23.7531

          k = 0.0000 0.1534 0.2301 (  5587 PWs)   bands (ev):

   -34.7156 -27.3495 -27.3147 -27.2819 -11.1293 -11.0430 -10.9772  14.2990
    16.3650  16.8107  18.9652  19.1000  20.0418  22.7445  23.1740  23.3348
    23.6557

          k = 0.0000 0.1534 0.3068 (  5580 PWs)   bands (ev):

   -34.7098 -27.3804 -27.3132 -27.2781 -11.2037 -11.0403 -10.9753  14.9207
    16.6605  17.3130  18.8452  19.0111  19.9169  22.2932  22.7636  23.2459
    23.8318

          k = 0.0000 0.1534 0.3835 (  5583 PWs)   bands (ev):

   -34.7051 -27.4061 -27.3117 -27.2749 -11.2654 -11.0373 -10.9737  15.4846
    16.9631  17.5671  18.7931  19.2417  19.7123  21.8952  22.4957  23.4005
    23.8144

          k = 0.0000 0.1534 0.4602 (  5586 PWs)   bands (ev):

   -34.7024 -27.4206 -27.3108 -27.2731 -11.3001 -11.0356 -10.9728  15.8364
    17.2216  17.4895  18.7896  19.5555  19.6643  21.7210  22.2817  23.5825
    23.6480

          k = 0.0000 0.2301 0.2301 (  5584 PWs)   bands (ev):

   -34.7090 -27.3557 -27.3397 -27.2785 -11.1377 -11.0931 -10.9736  14.7366
    16.5530  17.2722  18.7117  18.9081  19.8416  22.7303  22.9732  23.3287
    23.5737

          k = 0.0000 0.2301 0.3068 (  5581 PWs)   bands (ev):

   -34.7019 -27.3828 -27.3456 -27.2748 -11.1920 -11.1001 -10.9697  15.1908
    16.6984  17.7867  18.5316  18.9550  19.4986  22.4550  22.8817  23.5840
    23.7218

          k = 0.0000 0.2301 0.3835 (  5577 PWs)   bands (ev):

   -34.6960 -27.4092 -27.3464 -27.2718 -11.2472 -11.0953 -10.9665  15.5665
    16.7468  18.0284  18.4477  19.1493  19.5388  22.2531  22.7317  23.8658
    23.9874

          k = 0.0000 0.2301 0.4602 (  5595 PWs)   bands (ev):

   -34.6927 -27.4243 -27.3466 -27.2700 -11.2789 -11.0919 -10.9646  15.7940
    16.7136  18.0970  18.4466  18.9111  20.2487  22.1679  22.5288  23.8734
    24.4171

          k = 0.0000 0.3068 0.3068 (  5582 PWs)   bands (ev):

   -34.6935 -27.3897 -27.3754 -27.2713 -11.1910 -11.1518 -10.9637  15.4097
    16.5808  18.2870  18.4890  19.0386  19.1778  22.4780  23.1568  23.6579
    24.0686

          k = 0.0000 0.3068 0.3835 (  5582 PWs)   bands (ev):

   -34.6865 -27.4126 -27.3829 -27.2684 -11.2285 -11.1558 -10.9587  15.5642
    16.3908  18.1507  18.6437  18.9398  19.9657  22.4901  23.1938  23.7840
    24.5980

          k = 0.0000 0.3068 0.4602 (  5579 PWs)   bands (ev):

   -34.6825 -27.4282 -27.3844 -27.2668 -11.2565 -11.1510 -10.9559  15.6628
    16.2398  18.1286  18.3842  19.1063  20.9479  22.2732  23.1503  23.9644
    25.0916

          k = 0.0000 0.3835 0.3835 (  5576 PWs)   bands (ev):

   -34.6785 -27.4178 -27.4106 -27.2657 -11.2191 -11.1995 -10.9523  15.5390
    16.0834  17.9573  18.2541  19.9356  20.5180  22.7543  23.5128  23.6386
    25.1623

          k = 0.0000 0.3835 0.4602 (  5582 PWs)   bands (ev):

   -34.6740 -27.4315 -27.4156 -27.2641 -11.2381 -11.1997 -10.9487  15.5335
    15.8978  17.8938  18.0131  20.3339  21.5553  22.5197  23.6220  23.7139
    25.5529

          k = 0.0000 0.4602 0.4602 (  5580 PWs)   bands (ev):

   -34.6692 -27.4337 -27.4328 -27.2626 -11.2286 -11.2260 -10.9446  15.4600
    15.7174  17.7790  17.8131  21.4643  21.9629  22.8261  23.0752  23.8747
    25.1967

          k = 0.0767 0.0767 0.0767 (  5578 PWs)   bands (ev):

   -34.7270 -27.2999 -27.2999 -27.2951 -11.0093 -10.9957 -10.9957  13.1319
    15.8414  15.8414  19.4343  19.4343  19.8244  23.3771  23.3771  24.3353
    25.2792

          k = 0.0767 0.0767 0.1534 (  5594 PWs)   bands (ev):

   -34.7235 -27.3198 -27.2972 -27.2940 -11.0566 -11.0000 -10.9958  13.5177
    16.0088  16.1522  19.2830  19.3332  19.9430  23.0611  23.5307  23.7219
    24.6182

          k = 0.0767 0.0767 0.2301 (  5603 PWs)   bands (ev):

   -34.7186 -27.3488 -27.2933 -27.2914 -11.1310 -10.9974 -10.9960  14.1016
    16.2717  16.6219  19.1490  19.1934  20.0194  22.5973  23.2332  23.7257
    23.8925

          k = 0.0767 0.0767 0.3068 (  5599 PWs)   bands (ev):

   -34.7134 -27.3794 -27.2892 -27.2886 -11.2095 -10.9962 -10.9944  14.7865
    16.5991  17.1576  19.0425  19.0857  20.0298  22.0716  22.9797  23.2656
    23.8218

          k = 0.0767 0.0767 0.3835 (  5596 PWs)   bands (ev):

   -34.7092 -27.4046 -27.2863 -27.2859 -11.2740 -10.9963 -10.9919  15.4265
    16.9313  17.5677  18.9037  19.2088  19.9989  21.5979  22.8153  22.8839
    23.6915

          k = 0.0767 0.0767 0.4602 (  5582 PWs)   bands (ev):

   -34.7067 -27.4188 -27.2850 -27.2839 -11.3101 -10.9964 -10.9904  15.8343
    17.1607  17.6996  18.8086  19.5149  19.9598  21.3093  22.5811  22.6912
    23.6253

          k = 0.0767 0.1534 0.1534 (  5584 PWs)   bands (ev):

   -34.7195 -27.3226 -27.3130 -27.2931 -11.0658 -11.0367 -10.9962  13.8820
    16.2211  16.4006  19.0935  19.1769  19.9763  23.1000  23.2711  23.4573
    24.2745

          k = 0.0767 0.1534 0.2301 (  5596 PWs)   bands (ev):

   -34.7138 -27.3491 -27.3143 -27.2901 -11.1269 -11.0424 -10.9941  14.4228
    16.4677  16.8517  18.9077  18.9978  19.8746  22.8334  23.0770  23.6029
    23.7018

          k = 0.0767 0.1534 0.3068 (  5590 PWs)   bands (ev):

   -34.7078 -27.3804 -27.3125 -27.2867 -11.2006 -11.0393 -10.9915  15.0389
    16.7521  17.3305  18.7681  18.9179  19.6893  22.4386  22.9715  23.3454
    23.8021

          k = 0.0767 0.1534 0.3835 (  5593 PWs)   bands (ev):

   -34.7028 -27.4064 -27.3108 -27.2838 -11.2617 -11.0364 -10.9891  15.6006
    17.0329  17.5248  18.6441  19.2087  19.5576  22.0708  22.6706  23.3475
    23.9142

          k = 0.0767 0.1534 0.4602 (  5592 PWs)   bands (ev):

   -34.7000 -27.4210 -27.3099 -27.2822 -11.2961 -11.0348 -10.9876  15.9618
    17.2337  17.4435  18.5678  19.3870  19.8134  21.8735  22.4163  23.0939
    24.2354

          k = 0.0767 0.2301 0.2301 (  5595 PWs)   bands (ev):

   -34.7071 -27.3546 -27.3399 -27.2869 -11.1341 -11.0935 -10.9904  14.8710
    16.6629  17.2988  18.6589  18.8075  19.5768  22.9802  23.0567  23.4762
    23.5618

          k = 0.0767 0.2301 0.3068 (  5579 PWs)   bands (ev):

   -34.6999 -27.3822 -27.3451 -27.2835 -11.1892 -11.0997 -10.9862  15.3335
    16.8021  17.7847  18.4754  18.8538  19.2547  22.7170  22.9376  23.6789
    23.7988

          k = 0.0767 0.2301 0.3835 (  5578 PWs)   bands (ev):

   -34.6939 -27.4090 -27.3456 -27.2807 -11.2446 -11.0949 -10.9825  15.7143
    16.8262  17.9709  18.3646  18.9745  19.5089  22.4462  22.7768  23.6869
    24.3238

          k = 0.0767 0.2301 0.4602 (  5586 PWs)   bands (ev):

   -34.6906 -27.4242 -27.3456 -27.2790 -11.2764 -11.0916 -10.9804  15.9504
    16.7587  18.0234  18.3214  18.8317  20.2611  22.2779  22.6023  23.4913
    24.8598

          k = 0.0767 0.3068 0.3068 (  5582 PWs)   bands (ev):

   -34.6914 -27.3885 -27.3753 -27.2801 -11.1881 -11.1525 -10.9804  15.5673
    16.6767  18.2303  18.5003  18.8433  19.0583  22.6430  23.2073  23.6473
    24.3156

          k = 0.0767 0.3068 0.3835 (  5584 PWs)   bands (ev):

   -34.6844 -27.4119 -27.3821 -27.2773 -11.2271 -11.1560 -10.9755  15.7257
    16.4729  18.0985  18.5020  18.9208  19.8749  22.5734  23.2372  23.7052
    24.9071

          k = 0.0767 0.3068 0.4602 (  5588 PWs)   bands (ev):

   -34.6805 -27.4276 -27.3833 -27.2757 -11.2556 -11.1514 -10.9726  15.8281
    16.3084  18.0607  18.2959  19.0707  20.8697  22.3223  23.2150  23.6737
    25.2258

          k = 0.0767 0.3835 0.3835 (  5593 PWs)   bands (ev):

   -34.6765 -27.4166 -27.4099 -27.2745 -11.2183 -11.2005 -10.9695  15.7037
    16.1671  17.9180  18.1754  19.9061  20.3951  22.7276  23.5548  23.5747
    25.4201

          k = 0.0767 0.3835 0.4602 (  5594 PWs)   bands (ev):

   -34.6721 -27.4304 -27.4144 -27.2729 -11.2384 -11.2006 -10.9661  15.7013
    15.9793  17.8528  17.9635  20.2753  21.4406  22.4824  23.4769  23.6965
    25.2515

          k = 0.0767 0.4602 0.4602 (  5585 PWs)   bands (ev):

   -34.6673 -27.4324 -27.4315 -27.2713 -11.2296 -11.2273 -10.9625  15.6297
    15.8039  17.7469  17.7777  21.4112  21.8647  22.6722  22.8648  23.9318
    25.1318

          k = 0.1534 0.1534 0.1534 (  5581 PWs)   bands (ev):

   -34.7151 -27.3198 -27.3198 -27.3079 -11.0674 -11.0372 -11.0372  14.2412
    16.5338  16.5338  18.9574  18.9574  19.7786  23.1081  23.2963  23.2963
    24.6960

          k = 0.1534 0.1534 0.2301 (  5593 PWs)   bands (ev):

   -34.7088 -27.3482 -27.3157 -27.3098 -11.1211 -11.0428 -11.0379  14.7669
    16.7398  16.9956  18.7505  18.7690  19.4592  23.0484  23.2581  23.5443
    23.9929

          k = 0.1534 0.1534 0.3068 (  5605 PWs)   bands (ev):

   -34.7022 -27.3805 -27.3114 -27.3096 -11.1923 -11.0387 -11.0339  15.3519
    16.9916  17.4032  18.5657  18.7260  19.2201  22.7533  23.3939  23.4643
    23.8275

          k = 0.1534 0.1534 0.3835 (  5596 PWs)   bands (ev):

   -34.6967 -27.4072 -27.3093 -27.3078 -11.2516 -11.0394 -11.0258  15.8793
    17.2446  17.3927  18.3794  18.9716  19.3870  22.4744  22.9751  23.2098
    24.3271

          k = 0.1534 0.1534 0.4602 (  5604 PWs)   bands (ev):

   -34.6936 -27.4223 -27.3091 -27.3057 -11.2849 -11.0398 -11.0211  16.2440
    17.1765  17.4235  18.2504  19.0215  20.0057  22.2987  22.6974  22.7651
    24.7363

          k = 0.1534 0.2301 0.2301 (  5581 PWs)   bands (ev):

   -34.7018 -27.3515 -27.3405 -27.3101 -11.1242 -11.0947 -11.0367  15.2461
    16.9855  17.3740  18.5178  18.5707  19.0094  23.2046  23.5183  23.5985
    23.8288

          k = 0.1534 0.2301 0.3068 (  5592 PWs)   bands (ev):

   -34.6943 -27.3808 -27.3437 -27.3076 -11.1817 -11.0984 -11.0317  15.7295
    17.1090  17.7582  18.3272  18.5996  18.7758  23.0965  23.2412  23.6391
    24.2799

          k = 0.1534 0.2301 0.3835 (  5597 PWs)   bands (ev):

   -34.6880 -27.4084 -27.3432 -27.3052 -11.2376 -11.0939 -11.0265  16.1150
    17.0503  17.8032  18.1673  18.6123  19.4386  22.8531  22.9593  23.4435
    24.9564

          k = 0.1534 0.2301 0.4602 (  5611 PWs)   bands (ev):

   -34.6845 -27.4240 -27.3429 -27.3038 -11.2693 -11.0914 -11.0232  16.3784
    16.8581  17.8596  18.0547  18.6214  20.2687  22.5097  22.8679  23.0809
    24.9329

          k = 0.1534 0.3068 0.3068 (  5603 PWs)   bands (ev):

   -34.6858 -27.3852 -27.3749 -27.3044 -11.1800 -11.1546 -11.0264  16.0159
    16.9518  18.0894  18.4084  18.5182  18.7576  22.9558  23.4346  23.5914
    24.9319

          k = 0.1534 0.3068 0.3835 (  5602 PWs)   bands (ev):

   -34.6788 -27.4098 -27.3797 -27.3017 -11.2233 -11.1565 -11.0215  16.1810
    16.7072  17.9575  18.2035  18.8036  19.6749  22.7587  23.3790  23.5734
    24.9774

          k = 0.1534 0.3068 0.4602 (  5598 PWs)   bands (ev):

   -34.6749 -27.4259 -27.3802 -27.3002 -11.2529 -11.1525 -11.0185  16.2958
    16.4993  17.8861  18.1023  18.9359  20.6760  22.4348  23.2349  23.4603
    25.0275

          k = 0.1534 0.3835 0.3835 (  5590 PWs)   bands (ev):

   -34.6711 -27.4130 -27.4078 -27.2988 -11.2164 -11.2035 -11.0170  16.1620
    16.4194  17.8132  17.9818  19.8170  20.0676  22.7352  23.3201  23.7787
    25.0331

          k = 0.1534 0.3835 0.4602 (  5593 PWs)   bands (ev):

   -34.6668 -27.4275 -27.4110 -27.2971 -11.2394 -11.2030 -11.0143  16.1583
    16.2375  17.7435  17.8400  20.0926  21.1157  22.4579  23.0974  23.8859
    25.0678

          k = 0.1534 0.4602 0.4602 (  5608 PWs)   bands (ev):

   -34.6623 -27.4287 -27.4280 -27.2954 -11.2325 -11.2307 -11.0119  16.0420
    16.1312  17.6613  17.6850  21.2132  21.4770  22.4953  22.5348  24.0977
    25.0892

          k = 0.2301 0.2301 0.2301 (  5602 PWs)   bands (ev):

   -34.6943 -27.3471 -27.3471 -27.3370 -11.1153 -11.0964 -11.0964  15.7646
    17.4836  17.4836  18.3305  18.3305  18.4438  23.4259  23.4259  24.1791
    24.2913

          k = 0.2301 0.2301 0.3068 (  5591 PWs)   bands (ev):

   -34.6863 -27.3792 -27.3425 -27.3402 -11.1723 -11.0982 -11.0927  16.2521
    17.6054  17.6464  18.1440  18.2241  18.5063  23.2670  23.4956  23.7033
    24.4882

          k = 0.2301 0.2301 0.3835 (  5608 PWs)   bands (ev):

   -34.6797 -27.4077 -27.3409 -27.3386 -11.2281 -11.0997 -11.0806  16.5661
    17.2896  17.7134  17.9950  18.2614  19.4164  23.0599  23.1795  23.4396
    24.7580

          k = 0.2301 0.2301 0.4602 (  5610 PWs)   bands (ev):

   -34.6760 -27.4238 -27.3413 -27.3364 -11.2595 -11.1006 -11.0736  16.7487
    17.0057  17.7850  17.9052  18.3489  20.3142  22.6103  22.9201  23.3282
    24.9288

          k = 0.2301 0.3068 0.3068 (  5604 PWs)   bands (ev):

   -34.6779 -27.3804 -27.3744 -27.3385 -11.1687 -11.1576 -11.0908  16.6400
    17.3745  17.9105  17.9648  18.4368  18.5287  23.1653  23.4367  23.8610
    24.5206

          k = 0.2301 0.3068 0.3835 (  5612 PWs)   bands (ev):

   -34.6709 -27.4071 -27.3762 -27.3360 -11.2185 -11.1571 -11.0857  16.7175
    17.1541  17.7624  17.9400  18.5844  19.5064  22.9291  23.2060  23.8483
    24.7623

          k = 0.2301 0.3068 0.4602 (  5603 PWs)   bands (ev):

   -34.6669 -27.4236 -27.3759 -27.3345 -11.2492 -11.1546 -11.0822  16.6611
    17.0522  17.6799  17.9565  18.6956  20.4761  22.5135  22.9825  23.8089
    24.9505

          k = 0.2301 0.3835 0.3835 (  5609 PWs)   bands (ev):

   -34.6635 -27.4080 -27.4049 -27.3329 -11.2137 -11.2076 -11.0833  16.6027
    17.0336  17.6750  17.7740  19.6693  19.6737  22.7994  23.0296  24.1007
    24.8745

          k = 0.2301 0.3835 0.4602 (  5609 PWs)   bands (ev):

   -34.6594 -27.4234 -27.4062 -27.3311 -11.2408 -11.2065 -11.0816  16.4941
    16.9679  17.6000  17.7153  19.7988  20.7154  22.4468  22.8426  24.1807
    25.0087

          k = 0.2301 0.4602 0.4602 (  5608 PWs)   bands (ev):

   -34.6551 -27.4235 -27.4231 -27.3292 -11.2365 -11.2357 -11.0810  16.3899
    16.9134  17.5495  17.5714  20.8426  20.9264  22.2650  22.5361  24.3526
    25.0887

          k = 0.3068 0.3068 0.3068 (  5611 PWs)   bands (ev):

   -34.6694 -27.3754 -27.3754 -27.3731 -11.1607 -11.1607 -11.1544  17.0193
    17.7369  17.7369  17.7873  18.5277  18.5277  23.2019  23.2019  24.3215
    24.3215

          k = 0.3068 0.3068 0.3835 (  5623 PWs)   bands (ev):

   -34.6624 -27.4044 -27.3734 -27.3712 -11.2143 -11.1634 -11.1465  16.9124
    17.5858  17.6030  18.0758  18.5177  19.4320  22.9552  22.9977  24.2394
    24.7110

          k = 0.3068 0.3068 0.4602 (  5618 PWs)   bands (ev):

   -34.6585 -27.4211 -27.3732 -27.3689 -11.2455 -11.1649 -11.1410  16.7886
    17.4709  17.5310  18.2775  18.5083  20.3705  22.4706  22.8887  24.2076
    24.9454

          k = 0.3068 0.3835 0.3835 (  5622 PWs)   bands (ev):

   -34.6554 -27.4027 -27.4019 -27.3690 -11.2121 -11.2112 -11.1528  16.8642
    17.5008  17.5400  18.1213  19.3537  19.5006  22.7925  22.8126  24.4761
    24.8275

          k = 0.3068 0.3835 0.4602 (  5623 PWs)   bands (ev):

   -34.6514 -27.4191 -27.4011 -27.3671 -11.2425 -11.2104 -11.1522  16.7934
    17.4478  17.4704  18.1098  19.4671  20.3769  22.3795  22.7333  24.5233
    25.0048

          k = 0.3068 0.4602 0.4602 (  5632 PWs)   bands (ev):

   -34.6475 -27.4180 -27.4179 -27.3649 -11.2409 -11.2408 -11.1536  16.7635
    17.4268  17.4421  17.9540  20.4184  20.4248  22.1767  22.5286  24.6578
    25.1037

          k = 0.3835 0.3835 0.3835 (  5640 PWs)   bands (ev):

   -34.6487 -27.3998 -27.3982 -27.3982 -11.2158 -11.2158 -11.2032  16.9780
    17.4368  17.4368  19.0552  19.3429  19.3429  22.6448  22.6448  24.8210
    24.8210

          k = 0.3835 0.3835 0.4602 (  5622 PWs)   bands (ev):

   -34.6449 -27.4155 -27.3979 -27.3957 -11.2440 -11.2179 -11.2058  16.9958
    17.3820  17.4014  19.1163  19.2489  20.1620  22.3009  22.5777  24.8236
    25.0350

          k = 0.3835 0.4602 0.4602 (  5630 PWs)   bands (ev):

   -34.6411 -27.4136 -27.4134 -27.3944 -11.2453 -11.2445 -11.2132  17.0739
    17.3566  17.3622  19.0300  20.0640  20.0761  22.1503  22.3977  24.9474
    25.1201

          k = 0.4602 0.4602 0.4602 (  5592 PWs)   bands (ev):

   -34.6376 -27.4113 -27.4109 -27.4109 -11.2477 -11.2477 -11.2454  17.2434
    17.3210  17.3210  19.8749  19.8890  19.8890  22.1445  22.1445  25.1302
    25.1302

     the Fermi energy is    22.4717 ev

!    total energy              =    -300.91328791 Ry
     estimated scf accuracy    <          2.2E-09 Ry
     smearing contrib. (-TS)   =      -0.00032337 Ry
     internal energy E=F+TS    =    -300.91296454 Ry

     convergence has been achieved in  17 iterations

     negative rho (up, down):  3.117E-01 0.000E+00

     Forces acting on atoms (cartesian axes, Ry/au):

     atom    1 type  1   force =     0.00000000   -0.00000000   -0.00000000
     atom    2 type  2   force =     0.00000000    0.00000000    0.00000000

     Total force =     0.000000     Total SCF correction =     0.000000


     Computing stress (Cartesian axis) and pressure


     negative rho (up, down):  3.117E-01 0.000E+00
          total   stress  (Ry/bohr**3)                   (kbar)     P=      238.74
   0.00162289   0.00000000   0.00000000          238.74        0.00        0.00
   0.00000000   0.00162289   0.00000000            0.00      238.74        0.00
   0.00000000   0.00000000   0.00162289            0.00        0.00      238.74


     Entering Dynamics;  it =     2   time =  0.00097 pico-seconds

  new lattice vectors (alat unit) :
   1.009807773   0.000000000   0.000000000
   0.000000000   1.009807773   0.000000000
   0.000000000   0.000000000   1.009807773
  new unit-cell volume =    185.7491 (a.u.)^3
  new positions in cryst coord
Ti       0.000000000   0.000000000   0.000000000
Ir       0.500000000   0.500000000   0.500000000
  new positions in cart coord (alat unit)
Ti       0.000000000   0.000000000   0.000000000
Ir       0.504903886   0.504903886   0.504903886

     Ekin =     0.00281320 Ry    T =   98.7 K  Etot =     -300.91047470
     new unit-cell volume =    185.74910 a.u.^3 (    27.52518 Ang^3 )
     density =     23.36504 g/cm^3

CELL_PARAMETERS (alat=  5.65028300)
   1.009807773   0.000000000   0.000000000
   0.000000000   1.009807773   0.000000000
   0.000000000   0.000000000   1.009807773

ATOMIC_POSITIONS (crystal)
Ti            0.0000000000        0.0000000000        0.0000000000    0   0   0
Ir            0.5000000000        0.5000000000        0.5000000000    0   0   0



     Writing output data file ./TiIr.Pm3m.save/
     NEW-OLD atomic charge density approx. for the potential

     Check: negative core charge=   -0.000001

     negative rho (up, down):  3.197E-01 0.000E+00
     extrapolated charge   27.51478, renormalised to   27.00000

     total cpu time spent up to now is       36.1 secs

     Self-consistent Calculation

     iteration #  1     ecut=   150.00 Ry     beta= 0.70
     CG style diagonalization
     ethr =  1.00E-06,  avg # of iterations =  7.4

     negative rho (up, down):  3.025E-01 0.000E+00

     total cpu time spent up to now is       37.5 secs

     total energy              =    -300.86589954 Ry
     estimated scf accuracy    <       0.04558333 Ry

     iteration #  2     ecut=   150.00 Ry     beta= 0.70
     CG style diagonalization
     ethr =  1.69E-04,  avg # of iterations =  4.8

     negative rho (up, down):  3.091E-01 0.000E+00

     total cpu time spent up to now is       38.3 secs

     total energy              =    -300.87723398 Ry
     estimated scf accuracy    <       0.40479831 Ry

     iteration #  3     ecut=   150.00 Ry     beta= 0.70
     CG style diagonalization
     ethr =  1.69E-04,  avg # of iterations =  3.9

     negative rho (up, down):  3.098E-01 0.000E+00

     total cpu time spent up to now is       39.0 secs

     total energy              =    -300.91456020 Ry
     estimated scf accuracy    <       0.05396534 Ry

     iteration #  4     ecut=   150.00 Ry     beta= 0.70
     CG style diagonalization
     ethr =  1.69E-04,  avg # of iterations =  3.1

     negative rho (up, down):  3.103E-01 0.000E+00

     total cpu time spent up to now is       39.6 secs

     total energy              =    -300.91999246 Ry
     estimated scf accuracy    <       0.01183898 Ry

     iteration #  5     ecut=   150.00 Ry     beta= 0.70
     CG style diagonalization
     ethr =  4.38E-05,  avg # of iterations =  3.0

     negative rho (up, down):  3.099E-01 0.000E+00

     total cpu time spent up to now is       40.2 secs

     total energy              =    -300.92118181 Ry
     estimated scf accuracy    <       0.00796544 Ry

     iteration #  6     ecut=   150.00 Ry     beta= 0.70
     CG style diagonalization
     ethr =  2.95E-05,  avg # of iterations =  3.0

     negative rho (up, down):  3.122E-01 0.000E+00

     total cpu time spent up to now is       40.8 secs

     total energy              =    -300.91725378 Ry
     estimated scf accuracy    <       0.01105106 Ry

     iteration #  7     ecut=   150.00 Ry     beta= 0.70
     CG style diagonalization
     ethr =  2.95E-05,  avg # of iterations =  3.4

     negative rho (up, down):  3.128E-01 0.000E+00

     total cpu time spent up to now is       41.4 secs

     total energy              =    -300.91825008 Ry
     estimated scf accuracy    <       0.00212899 Ry

     iteration #  8     ecut=   150.00 Ry     beta= 0.70
     CG style diagonalization
     ethr =  7.89E-06,  avg # of iterations =  3.2

     negative rho (up, down):  3.126E-01 0.000E+00

     total cpu time spent up to now is       42.0 secs

     total energy              =    -300.91855539 Ry
     estimated scf accuracy    <       0.00035313 Ry

     iteration #  9     ecut=   150.00 Ry     beta= 0.70
     CG style diagonalization
     ethr =  1.31E-06,  avg # of iterations =  3.3

     negative rho (up, down):  3.125E-01 0.000E+00

     total cpu time spent up to now is       42.6 secs

     total energy              =    -300.91856097 Ry
     estimated scf accuracy    <       0.00019178 Ry

     iteration # 10     ecut=   150.00 Ry     beta= 0.70
     CG style diagonalization
     ethr =  7.10E-07,  avg # of iterations =  3.0

     negative rho (up, down):  3.122E-01 0.000E+00

     total cpu time spent up to now is       43.2 secs

     total energy              =    -300.91851673 Ry
     estimated scf accuracy    <       0.00011421 Ry

     iteration # 11     ecut=   150.00 Ry     beta= 0.70
     CG style diagonalization
     ethr =  4.23E-07,  avg # of iterations =  3.3

     negative rho (up, down):  3.120E-01 0.000E+00

     total cpu time spent up to now is       43.8 secs

     total energy              =    -300.91852560 Ry
     estimated scf accuracy    <       0.00001657 Ry

     iteration # 12     ecut=   150.00 Ry     beta= 0.70
     CG style diagonalization
     ethr =  6.14E-08,  avg # of iterations =  3.5

     negative rho (up, down):  3.120E-01 0.000E+00

     total cpu time spent up to now is       44.5 secs

     total energy              =    -300.91852945 Ry
     estimated scf accuracy    <       0.00000135 Ry

     iteration # 13     ecut=   150.00 Ry     beta= 0.70
     CG style diagonalization
     ethr =  4.99E-09,  avg # of iterations =  3.5

     negative rho (up, down):  3.121E-01 0.000E+00

     total cpu time spent up to now is       45.1 secs

     total energy              =    -300.91853038 Ry
     estimated scf accuracy    <       0.00000173 Ry

     iteration # 14     ecut=   150.00 Ry     beta= 0.70
     CG style diagonalization
     ethr =  4.99E-09,  avg # of iterations =  3.4

     negative rho (up, down):  3.121E-01 0.000E+00

     total cpu time spent up to now is       45.8 secs

     total energy              =    -300.91852879 Ry
     estimated scf accuracy    <       0.00000510 Ry

     iteration # 15     ecut=   150.00 Ry     beta= 0.70
     CG style diagonalization
     ethr =  4.99E-09,  avg # of iterations =  3.8

     negative rho (up, down):  3.121E-01 0.000E+00

     total cpu time spent up to now is       46.5 secs

     total energy              =    -300.91852924 Ry
     estimated scf accuracy    <       0.00000079 Ry

     iteration # 16     ecut=   150.00 Ry     beta= 0.70
     CG style diagonalization
     ethr =  2.91E-09,  avg # of iterations =  3.1

     negative rho (up, down):  3.121E-01 0.000E+00

     total cpu time spent up to now is       47.1 secs

     total energy              =    -300.91852927 Ry
     estimated scf accuracy    <       0.00000019 Ry

     iteration # 17     ecut=   150.00 Ry     beta= 0.70
     CG style diagonalization
     ethr =  6.88E-10,  avg # of iterations =  3.4

     negative rho (up, down):  3.121E-01 0.000E+00

     total cpu time spent up to now is       47.7 secs

     total energy              =    -300.91852926 Ry
     estimated scf accuracy    <       0.00000008 Ry

     iteration # 18     ecut=   150.00 Ry     beta= 0.70
     CG style diagonalization
     ethr =  3.08E-10,  avg # of iterations =  3.7

     negative rho (up, down):  3.121E-01 0.000E+00

     total cpu time spent up to now is       48.4 secs

     total energy              =    -300.91852928 Ry
     estimated scf accuracy    <       0.00000001 Ry

     iteration # 19     ecut=   150.00 Ry     beta= 0.70
     CG style diagonalization
     ethr =  3.94E-11,  avg # of iterations =  3.4

     negative rho (up, down):  3.121E-01 0.000E+00

     total cpu time spent up to now is       49.0 secs

     End of self-consistent calculation

          k = 0.0000 0.0000 0.0000 (  5575 PWs)   bands (ev):

   -35.3069 -27.7586 -27.7586 -27.7586 -11.5585 -11.5585 -11.5585  12.3145
    15.2493  15.2493  19.1339  19.1339  19.1339  22.9258  22.9258  24.9221
    24.9221

          k = 0.0000 0.0000 0.0762 (  5566 PWs)   bands (ev):

   -35.3059 -27.7655 -27.7577 -27.7577 -11.5771 -11.5584 -11.5584  12.4503
    15.3091  15.3533  19.1054  19.1054  19.1768  22.7925  22.9717  24.6394
    24.6395

          k = 0.0000 0.0000 0.1524 (  5594 PWs)   bands (ev):

   -35.3029 -27.7844 -27.7553 -27.7553 -11.6285 -11.5582 -11.5582  12.8423
    15.4843  15.6523  19.0295  19.0295  19.3013  22.4181  23.0927  23.9964
    23.9964

          k = 0.0000 0.0000 0.2285 (  5594 PWs)   bands (ev):

   -35.2988 -27.8109 -27.7519 -27.7519 -11.7003 -11.5580 -11.5580  13.4425
    15.7603  16.1074  18.9299  18.9299  19.4935  21.8717  23.2281  23.2842
    23.2842

          k = 0.0000 0.0000 0.3047 (  5578 PWs)   bands (ev):

   -35.2944 -27.8389 -27.7482 -27.7482 -11.7757 -11.5577 -11.5577  14.1582
    16.1061  16.6559  18.8337  18.8337  19.7256  21.2514  22.6626  22.6626
    23.2334

          k = 0.0000 0.0000 0.3809 (  5582 PWs)   bands (ev):

   -35.2908 -27.8620 -27.7452 -27.7452 -11.8376 -11.5575 -11.5575  14.8342
    16.4583  17.2059  18.7619  18.7619  19.9496  20.6802  22.2109  22.2109
    22.9069

          k = 0.0000 0.0000 0.4571 (  5586 PWs)   bands (ev):

   -35.2888 -27.8750 -27.7435 -27.7435 -11.8723 -11.5574 -11.5574  15.2582
    16.7011  17.5967  18.7248  18.7248  20.0942  20.3171  21.9739  21.9739
    22.4598

          k = 0.0000 0.0762 0.0762 (  5585 PWs)   bands (ev):

   -35.3047 -27.7662 -27.7632 -27.7569 -11.5812 -11.5723 -11.5582  12.5836
    15.3881  15.4362  19.0146  19.0694  19.2748  22.7664  22.9298  24.2587
    24.3630

          k = 0.0000 0.0762 0.1524 (  5578 PWs)   bands (ev):

   -35.3016 -27.7842 -27.7622 -27.7545 -11.6285 -11.5746 -11.5577  12.9679
    15.5653  15.7272  18.8974  18.9729  19.4142  22.4653  23.0302  23.6460
    23.7417

          k = 0.0000 0.0762 0.2285 (  5601 PWs)   bands (ev):

   -35.2972 -27.8110 -27.7592 -27.7511 -11.6987 -11.5736 -11.5571  13.5539
    15.8327  16.1784  18.7869  18.8464  19.5592  21.9755  23.0338  23.0511
    23.2244

          k = 0.0000 0.0762 0.3047 (  5597 PWs)   bands (ev):

   -35.2926 -27.8393 -27.7561 -27.7474 -11.7726 -11.5725 -11.5564  14.2490
    16.1658  16.7061  18.6984  18.7358  19.6773  21.4152  22.4820  22.6113
    23.2747

          k = 0.0000 0.0762 0.3809 (  5583 PWs)   bands (ev):

   -35.2888 -27.8626 -27.7534 -27.7444 -11.8333 -11.5716 -11.5558  14.9046
    16.5071  17.1642  18.6424  18.7187  19.7359  20.9086  22.0822  22.3941
    23.0490

          k = 0.0000 0.0762 0.4571 (  5593 PWs)   bands (ev):

[...]
Ir            0.5000000000        0.5000000000        0.5000000000    0   0   0
End final coordinates



     Writing output data file ./TiIr.Pm3m.save/

check_writable_dir fail: insufficient permissions to access './TiIr.Pm3m.save/'

check_writable_dir fail: insufficient permissions to access './TiIr.Pm3m.save/'
forrtl: Permission denied
forrtl: severe (9): permission to access file denied, unit 4, file /share/data/pkveton/QE/TiIr/Pm3m/vc-relax/./TiIr.Pm3m.save/wfc75.dat
Image              PC                Routine            Line        Source             
pw.x               0000000000E1164B  Unknown               Unknown  Unknown
pw.x               0000000000E30730  Unknown               Unknown  Unknown
pw.x               000000000095516A  io_base_mp_write_         101  io_base.f90
pw.x               000000000057E054  pw_restart_new_mp         842  pw_restart_new.f90
pw.x               0000000000575614  punch_                    108  punch.f90
pw.x               00000000005B39A9  run_pwscf_                284  run_pwscf.f90
pw.x               000000000040DBDB  MAIN__                    106  pwscf.f90
pw.x               000000000040DA22  Unknown               Unknown  Unknown
libc-2.24.so       00007FEBD1CE32E1  __libc_start_main     Unknown  Unknown
pw.x               000000000040D8EA  Unknown               Unknown  Unknown

===================================================================================
=   BAD TERMINATION OF ONE OF YOUR APPLICATION PROCESSES
=   RANK 52 PID 26896 RUNNING AT pleiades13.uwp.edu
=   EXIT STATUS: 9
===================================================================================

===================================================================================
=   BAD TERMINATION OF ONE OF YOUR APPLICATION PROCESSES
=   RANK 53 PID 26897 RUNNING AT pleiades13.uwp.edu
=   KILLED BY SIGNAL: 9 (Killed)
===================================================================================

===================================================================================
=   BAD TERMINATION OF ONE OF YOUR APPLICATION PROCESSES
=   RANK 54 PID 26898 RUNNING AT pleiades13.uwp.edu
=   KILLED BY SIGNAL: 9 (Killed)
===================================================================================

===================================================================================
=   BAD TERMINATION OF ONE OF YOUR APPLICATION PROCESSES
=   RANK 55 PID 26899 RUNNING AT pleiades13.uwp.edu
=   KILLED BY SIGNAL: 9 (Killed)
===================================================================================

===================================================================================
=   BAD TERMINATION OF ONE OF YOUR APPLICATION PROCESSES
=   RANK 0 PID 27579 RUNNING AT pleiades01.uwp.edu
=   KILLED BY SIGNAL: 9 (Killed)
===================================================================================

===================================================================================
=   BAD TERMINATION OF ONE OF YOUR APPLICATION PROCESSES
=   RANK 1 PID 27580 RUNNING AT pleiades01.uwp.edu
=   KILLED BY SIGNAL: 9 (Killed)
===================================================================================

===================================================================================
=   BAD TERMINATION OF ONE OF YOUR APPLICATION PROCESSES
=   RANK 2 PID 27581 RUNNING AT pleiades01.uwp.edu
=   KILLED BY SIGNAL: 9 (Killed)
===================================================================================

===================================================================================
=   BAD TERMINATION OF ONE OF YOUR APPLICATION PROCESSES
=   RANK 3 PID 27582 RUNNING AT pleiades01.uwp.edu
=   KILLED BY SIGNAL: 9 (Killed)
===================================================================================

===================================================================================
=   BAD TERMINATION OF ONE OF YOUR APPLICATION PROCESSES
=   RANK 12 PID 622 RUNNING AT pleiades04.uwp.edu
=   KILLED BY SIGNAL: 9 (Killed)
===================================================================================

===================================================================================
=   BAD TERMINATION OF ONE OF YOUR APPLICATION PROCESSES
=   RANK 13 PID 623 RUNNING AT pleiades04.uwp.edu
=   KILLED BY SIGNAL: 9 (Killed)
===================================================================================

===================================================================================
=   BAD TERMINATION OF ONE OF YOUR APPLICATION PROCESSES
=   RANK 14 PID 624 RUNNING AT pleiades04.uwp.edu
=   KILLED BY SIGNAL: 9 (Killed)
===================================================================================

===================================================================================
=   BAD TERMINATION OF ONE OF YOUR APPLICATION PROCESSES
=   RANK 15 PID 625 RUNNING AT pleiades04.uwp.edu
=   KILLED BY SIGNAL: 9 (Killed)
===================================================================================

===================================================================================
=   BAD TERMINATION OF ONE OF YOUR APPLICATION PROCESSES
=   RANK 4 PID 17197 RUNNING AT pleiades02.uwp.edu
=   KILLED BY SIGNAL: 9 (Killed)
===================================================================================

===================================================================================
=   BAD TERMINATION OF ONE OF YOUR APPLICATION PROCESSES
=   RANK 5 PID 17198 RUNNING AT pleiades02.uwp.edu
=   KILLED BY SIGNAL: 9 (Killed)
===================================================================================

===================================================================================
=   BAD TERMINATION OF ONE OF YOUR APPLICATION PROCESSES
=   RANK 6 PID 17199 RUNNING AT pleiades02.uwp.edu
=   KILLED BY SIGNAL: 9 (Killed)
===================================================================================

===================================================================================
=   BAD TERMINATION OF ONE OF YOUR APPLICATION PROCESSES
=   RANK 7 PID 17200 RUNNING AT pleiades02.uwp.edu
=   KILLED BY SIGNAL: 9 (Killed)
===================================================================================

===================================================================================
=   BAD TERMINATION OF ONE OF YOUR APPLICATION PROCESSES
=   RANK 8 PID 7894 RUNNING AT pleiades03.uwp.edu
=   KILLED BY SIGNAL: 9 (Killed)
===================================================================================

===================================================================================
=   BAD TERMINATION OF ONE OF YOUR APPLICATION PROCESSES
=   RANK 9 PID 7895 RUNNING AT pleiades03.uwp.edu
=   KILLED BY SIGNAL: 9 (Killed)
===================================================================================

===================================================================================
=   BAD TERMINATION OF ONE OF YOUR APPLICATION PROCESSES
=   RANK 10 PID 7896 RUNNING AT pleiades03.uwp.edu
=   KILLED BY SIGNAL: 9 (Killed)
===================================================================================

===================================================================================
=   BAD TERMINATION OF ONE OF YOUR APPLICATION PROCESSES
=   RANK 11 PID 7897 RUNNING AT pleiades03.uwp.edu
=   KILLED BY SIGNAL: 9 (Killed)
===================================================================================

===================================================================================
=   BAD TERMINATION OF ONE OF YOUR APPLICATION PROCESSES
=   RANK 16 PID 16861 RUNNING AT pleiades05.uwp.edu
=   KILLED BY SIGNAL: 9 (Killed)
===================================================================================

===================================================================================
=   BAD TERMINATION OF ONE OF YOUR APPLICATION PROCESSES
=   RANK 17 PID 16862 RUNNING AT pleiades05.uwp.edu
=   KILLED BY SIGNAL: 9 (Killed)
===================================================================================

===================================================================================
=   BAD TERMINATION OF ONE OF YOUR APPLICATION PROCESSES
=   RANK 18 PID 16863 RUNNING AT pleiades05.uwp.edu
=   KILLED BY SIGNAL: 9 (Killed)
===================================================================================

===================================================================================
=   BAD TERMINATION OF ONE OF YOUR APPLICATION PROCESSES
=   RANK 19 PID 16864 RUNNING AT pleiades05.uwp.edu
=   KILLED BY SIGNAL: 9 (Killed)
===================================================================================

===================================================================================
=   BAD TERMINATION OF ONE OF YOUR APPLICATION PROCESSES
=   RANK 32 PID 23540 RUNNING AT pleiades09.uwp.edu
=   KILLED BY SIGNAL: 9 (Killed)
===================================================================================

===================================================================================
=   BAD TERMINATION OF ONE OF YOUR APPLICATION PROCESSES
=   RANK 33 PID 23541 RUNNING AT pleiades09.uwp.edu
=   KILLED BY SIGNAL: 9 (Killed)
===================================================================================

===================================================================================
=   BAD TERMINATION OF ONE OF YOUR APPLICATION PROCESSES
=   RANK 34 PID 23542 RUNNING AT pleiades09.uwp.edu
=   KILLED BY SIGNAL: 9 (Killed)
===================================================================================

===================================================================================
=   BAD TERMINATION OF ONE OF YOUR APPLICATION PROCESSES
=   RANK 35 PID 23543 RUNNING AT pleiades09.uwp.edu
=   KILLED BY SIGNAL: 9 (Killed)
===================================================================================

===================================================================================
=   BAD TERMINATION OF ONE OF YOUR APPLICATION PROCESSES
=   RANK 44 PID 22088 RUNNING AT pleiades12.uwp.edu
=   KILLED BY SIGNAL: 9 (Killed)
===================================================================================

===================================================================================
=   BAD TERMINATION OF ONE OF YOUR APPLICATION PROCESSES
=   RANK 45 PID 22089 RUNNING AT pleiades12.uwp.edu
=   KILLED BY SIGNAL: 9 (Killed)
===================================================================================

===================================================================================
=   BAD TERMINATION OF ONE OF YOUR APPLICATION PROCESSES
=   RANK 46 PID 22090 RUNNING AT pleiades12.uwp.edu
=   KILLED BY SIGNAL: 9 (Killed)
===================================================================================

===================================================================================
=   BAD TERMINATION OF ONE OF YOUR APPLICATION PROCESSES
=   RANK 47 PID 22091 RUNNING AT pleiades12.uwp.edu
=   KILLED BY SIGNAL: 9 (Killed)
===================================================================================

===================================================================================
=   BAD TERMINATION OF ONE OF YOUR APPLICATION PROCESSES
=   RANK 24 PID 15602 RUNNING AT pleiades07.uwp.edu
=   KILLED BY SIGNAL: 9 (Killed)
===================================================================================

===================================================================================
=   BAD TERMINATION OF ONE OF YOUR APPLICATION PROCESSES
=   RANK 25 PID 15603 RUNNING AT pleiades07.uwp.edu
=   KILLED BY SIGNAL: 9 (Killed)
===================================================================================

===================================================================================
=   BAD TERMINATION OF ONE OF YOUR APPLICATION PROCESSES
=   RANK 26 PID 15604 RUNNING AT pleiades07.uwp.edu
=   KILLED BY SIGNAL: 9 (Killed)
===================================================================================

===================================================================================
=   BAD TERMINATION OF ONE OF YOUR APPLICATION PROCESSES
=   RANK 27 PID 15605 RUNNING AT pleiades07.uwp.edu
=   KILLED BY SIGNAL: 9 (Killed)
===================================================================================

===================================================================================
=   BAD TERMINATION OF ONE OF YOUR APPLICATION PROCESSES
=   RANK 40 PID 17679 RUNNING AT pleiades11.uwp.edu
=   KILLED BY SIGNAL: 9 (Killed)
===================================================================================

===================================================================================
=   BAD TERMINATION OF ONE OF YOUR APPLICATION PROCESSES
=   RANK 41 PID 17680 RUNNING AT pleiades11.uwp.edu
=   KILLED BY SIGNAL: 9 (Killed)
===================================================================================

===================================================================================
=   BAD TERMINATION OF ONE OF YOUR APPLICATION PROCESSES
=   RANK 42 PID 17681 RUNNING AT pleiades11.uwp.edu
=   KILLED BY SIGNAL: 9 (Killed)
===================================================================================

===================================================================================
=   BAD TERMINATION OF ONE OF YOUR APPLICATION PROCESSES
=   RANK 43 PID 17682 RUNNING AT pleiades11.uwp.edu
=   KILLED BY SIGNAL: 9 (Killed)
===================================================================================

===================================================================================
=   BAD TERMINATION OF ONE OF YOUR APPLICATION PROCESSES
=   RANK 56 PID 31530 RUNNING AT pleiades15.uwp.edu
=   KILLED BY SIGNAL: 9 (Killed)
===================================================================================

===================================================================================
=   BAD TERMINATION OF ONE OF YOUR APPLICATION PROCESSES
=   RANK 57 PID 31531 RUNNING AT pleiades15.uwp.edu
=   KILLED BY SIGNAL: 9 (Killed)
===================================================================================

===================================================================================
=   BAD TERMINATION OF ONE OF YOUR APPLICATION PROCESSES
=   RANK 58 PID 31532 RUNNING AT pleiades15.uwp.edu
=   KILLED BY SIGNAL: 9 (Killed)
===================================================================================

===================================================================================
=   BAD TERMINATION OF ONE OF YOUR APPLICATION PROCESSES
=   RANK 59 PID 31533 RUNNING AT pleiades15.uwp.edu
=   KILLED BY SIGNAL: 9 (Killed)
===================================================================================

===================================================================================
=   BAD TERMINATION OF ONE OF YOUR APPLICATION PROCESSES
=   RANK 20 PID 23893 RUNNING AT pleiades06.uwp.edu
=   KILLED BY SIGNAL: 9 (Killed)
===================================================================================

===================================================================================
=   BAD TERMINATION OF ONE OF YOUR APPLICATION PROCESSES
=   RANK 21 PID 23894 RUNNING AT pleiades06.uwp.edu
=   KILLED BY SIGNAL: 9 (Killed)
===================================================================================

===================================================================================
=   BAD TERMINATION OF ONE OF YOUR APPLICATION PROCESSES
=   RANK 22 PID 23895 RUNNING AT pleiades06.uwp.edu
=   KILLED BY SIGNAL: 9 (Killed)
===================================================================================

===================================================================================
=   BAD TERMINATION OF ONE OF YOUR APPLICATION PROCESSES
=   RANK 23 PID 23896 RUNNING AT pleiades06.uwp.edu
=   KILLED BY SIGNAL: 9 (Killed)
===================================================================================

===================================================================================
=   BAD TERMINATION OF ONE OF YOUR APPLICATION PROCESSES
=   RANK 36 PID 9702 RUNNING AT pleiades10.uwp.edu
=   KILLED BY SIGNAL: 9 (Killed)
===================================================================================

===================================================================================
=   BAD TERMINATION OF ONE OF YOUR APPLICATION PROCESSES
=   RANK 37 PID 9703 RUNNING AT pleiades10.uwp.edu
=   KILLED BY SIGNAL: 9 (Killed)
===================================================================================

===================================================================================
=   BAD TERMINATION OF ONE OF YOUR APPLICATION PROCESSES
=   RANK 38 PID 9704 RUNNING AT pleiades10.uwp.edu
=   KILLED BY SIGNAL: 9 (Killed)
===================================================================================

===================================================================================
=   BAD TERMINATION OF ONE OF YOUR APPLICATION PROCESSES
=   RANK 39 PID 9705 RUNNING AT pleiades10.uwp.edu
=   KILLED BY SIGNAL: 9 (Killed)
===================================================================================

===================================================================================
=   BAD TERMINATION OF ONE OF YOUR APPLICATION PROCESSES
=   RANK 28 PID 31415 RUNNING AT pleiades08.uwp.edu
=   KILLED BY SIGNAL: 9 (Killed)
===================================================================================

===================================================================================
=   BAD TERMINATION OF ONE OF YOUR APPLICATION PROCESSES
=   RANK 29 PID 31416 RUNNING AT pleiades08.uwp.edu
=   KILLED BY SIGNAL: 9 (Killed)
===================================================================================

===================================================================================
=   BAD TERMINATION OF ONE OF YOUR APPLICATION PROCESSES
=   RANK 30 PID 31417 RUNNING AT pleiades08.uwp.edu
=   KILLED BY SIGNAL: 9 (Killed)
===================================================================================

===================================================================================
=   BAD TERMINATION OF ONE OF YOUR APPLICATION PROCESSES
=   RANK 31 PID 31418 RUNNING AT pleiades08.uwp.edu
=   KILLED BY SIGNAL: 9 (Killed)
===================================================================================

===================================================================================
=   BAD TERMINATION OF ONE OF YOUR APPLICATION PROCESSES
=   RANK 48 PID 7066 RUNNING AT pleiades14.uwp.edu
=   KILLED BY SIGNAL: 9 (Killed)
===================================================================================

===================================================================================
=   BAD TERMINATION OF ONE OF YOUR APPLICATION PROCESSES
=   RANK 49 PID 7067 RUNNING AT pleiades14.uwp.edu
=   KILLED BY SIGNAL: 9 (Killed)
===================================================================================

===================================================================================
=   BAD TERMINATION OF ONE OF YOUR APPLICATION PROCESSES
=   RANK 50 PID 7068 RUNNING AT pleiades14.uwp.edu
=   KILLED BY SIGNAL: 9 (Killed)
===================================================================================

===================================================================================
=   BAD TERMINATION OF ONE OF YOUR APPLICATION PROCESSES
=   RANK 51 PID 7069 RUNNING AT pleiades14.uwp.edu
=   KILLED BY SIGNAL: 9 (Killed)
===================================================================================
