
     Program PWSCF v.6.7MaX starts on 20Apr2023 at 16:18:47 

     This program is part of the open-source Quantum ESPRESSO suite
     for quantum simulation of materials; please cite
         "P. Giannozzi et al., J. Phys.:Condens. Matter 21 395502 (2009);
         "P. Giannozzi et al., J. Phys.:Condens. Matter 29 465901 (2017);
          URL http://www.quantum-espresso.org", 
     in publications or presentations arising from this work. More details at
     http://www.quantum-espresso.org/quote

     Parallel version (MPI), running on    60 processors

     MPI processes distributed on    15 nodes
     K-points division:     npool     =      15
     R & G space division:  proc/nbgrp/npool/nimage =       4
     Reading input from TiIr.Im.vc-relax.in

     Current dimensions of program PWSCF are:
     Max number of different atomic species (ntypx) = 10
     Max number of k-points (npk) =  40000
     Max angular momentum in pseudopotentials (lmaxx) =  3

check_writable_dir fail: insufficient permissions to access './'

check_writable_dir fail: insufficient permissions to access './'

check_writable_dir fail: insufficient permissions to access './'

check_writable_dir fail: insufficient permissions to access './'

check_writable_dir fail: insufficient permissions to access './'

check_writable_dir fail: insufficient permissions to access './'

check_writable_dir fail: insufficient permissions to access './'

check_writable_dir fail: insufficient permissions to access './'

     Subspace diagonalization in iterative solution of the eigenvalue problem:
     a serial algorithm will be used

 
     Parallelization info
     --------------------
     sticks:   dense  smooth     PW     G-vecs:    dense   smooth      PW
     Min         367     367    106                12723    12723    1947
     Max         368     368    107                12724    12724    1948
     Sum        1471    1471    425                50895    50895    7791
 

     Title: 
     variable cell relaxation for 2-atom Im-3m                                  


     bravais-lattice index     =          -12
     lattice parameter (alat)  =       5.6503  a.u.
     unit-cell volume          =     205.0538 (a.u.)^3
     number of atoms/cell      =            2
     number of atomic types    =            2
     number of electrons       =        27.00
     number of Kohn-Sham states=           17
     kinetic-energy cutoff     =     150.0000  Ry
     charge density cutoff     =     600.0000  Ry
     scf convergence threshold =      1.0E-08
     mixing beta               =       0.7000
     number of iterations used =            8  plain     mixing
     energy convergence thresh.=      7.3E-05
     force convergence thresh. =      1.9E-04
     press convergence thresh. =      1.0E+00
     Exchange-correlation= SLA  PW   PSX  PSC
                           (   1   4  10   8   0   0   0)
     nstep                     =          150


     celldm(1)=   5.650283  celldm(2)=   0.964214  celldm(3)=   1.178930
     celldm(4)=   0.000000  celldm(5)=  -0.004363  celldm(6)=   0.000000

     crystal axes: (cart. coord. in units of alat)
               a(1) = (   1.000000   0.000000   0.000000 )  
               a(2) = (   0.000000   0.964214   0.000000 )  
               a(3) = (  -0.005144   0.000000   1.178919 )  

     reciprocal axes: (cart. coord. in units 2 pi/alat)
               b(1) = (  1.000000  0.000000  0.004363 )  
               b(2) = (  0.000000  1.037114  0.000000 )  
               b(3) = (  0.000000  0.000000  0.848235 )  


     PseudoPot. # 1 for Ti read from file:
     /share/pseudo/ti_pbesol_v1.4.uspp.F.UPF
     MD5 check sum: 193cf2c0c3c6a4da613d69453fa7e3e9
     Pseudo is Ultrasoft + core correction, Zval = 12.0
     Generated by new atomic code, or converted to UPF format
     Using radial grid of  851 points,  6 beta functions with: 
                l(1) =   0
                l(2) =   0
                l(3) =   1
                l(4) =   1
                l(5) =   2
                l(6) =   2
     Q(r) pseudized with  6 coefficients,  rinner =    1.000   1.000   1.000
                                                       1.000   1.000

     PseudoPot. # 2 for Ir read from file:
     /share/pseudo/ir_pbesol_v1.2.uspp.F.UPF
     MD5 check sum: 965d8bb5733ec2587acb56a50491f36d
     Pseudo is Ultrasoft + core correction, Zval = 15.0
     Generated by new atomic code, or converted to UPF format
     Using radial grid of  983 points,  7 beta functions with: 
                l(1) =   0
                l(2) =   0
                l(3) =   1
                l(4) =   1
                l(5) =   1
                l(6) =   2
                l(7) =   2
     Q(r) pseudized with  8 coefficients,  rinner =    1.400   1.400   1.400
                                                       1.400   1.400

     atomic species   valence    mass     pseudopotential
        Ti            12.00   195.08000     Ti( 1.00)
        Ir            15.00   192.22000     Ir( 1.00)

      cell mass =   0.00100 AMU/(a.u.)^2 

      4 Sym. Ops., with inversion, found



   Cartesian axes

     site n.     atom                  positions (alat units)
         1           Ti  tau(   1) = (   0.0000000   0.0000000   0.0000000  )
         2           Ir  tau(   2) = (   0.4974282   0.4821070   0.5894594  )

     number of k points=   595  Gaussian smearing, width (Ry)=  0.0030

     Number of k-points >= 100: set verbosity='high' to print them.

     Dense  grid:    50895 G-vectors     FFT dimensions: (  45,  45,  54)

     Estimated max dynamical RAM per process >      39.43 MB

     Estimated total dynamical RAM >       2.31 GB

     Initial potential from superposition of free atoms

     starting charge   25.49993, renormalised to   27.00000

     negative rho (up, down):  3.816E-01 0.000E+00
     Starting wfcs are   22 randomized atomic wfcs

     total cpu time spent up to now is        3.9 secs

     Self-consistent Calculation

     iteration #  1     ecut=   150.00 Ry     beta= 0.70
     CG style diagonalization
     ethr =  1.00E-02,  avg # of iterations =  2.6

     negative rho (up, down):  2.411E-01 0.000E+00

     total cpu time spent up to now is        7.7 secs

     total energy              =    -293.41423750 Ry
     estimated scf accuracy    <      10.76857995 Ry

     iteration #  2     ecut=   150.00 Ry     beta= 0.70
     CG style diagonalization
     ethr =  1.00E-02,  avg # of iterations =  7.3

     negative rho (up, down):  1.861E-01 0.000E+00

     total cpu time spent up to now is       16.6 secs

     total energy              =    -298.80981376 Ry
     estimated scf accuracy    <      32.23167041 Ry

     iteration #  3     ecut=   150.00 Ry     beta= 0.70
     CG style diagonalization
     ethr =  1.00E-02,  avg # of iterations =  4.2

     negative rho (up, down):  2.434E-01 0.000E+00

     total cpu time spent up to now is       21.6 secs

     total energy              =    -301.16813414 Ry
     estimated scf accuracy    <       4.38857275 Ry

     iteration #  4     ecut=   150.00 Ry     beta= 0.70
     CG style diagonalization
     ethr =  1.00E-02,  avg # of iterations =  3.1

     negative rho (up, down):  3.522E-01 0.000E+00

     total cpu time spent up to now is       25.2 secs

     total energy              =    -300.09937180 Ry
     estimated scf accuracy    <       2.38676861 Ry

     iteration #  5     ecut=   150.00 Ry     beta= 0.70
     CG style diagonalization
     ethr =  8.84E-03,  avg # of iterations =  4.0

     negative rho (up, down):  2.931E-01 0.000E+00

     total cpu time spent up to now is       30.0 secs

     total energy              =    -299.85352611 Ry
     estimated scf accuracy    <       7.43936372 Ry

     iteration #  6     ecut=   150.00 Ry     beta= 0.70
     CG style diagonalization
     ethr =  8.84E-03,  avg # of iterations =  3.5

     negative rho (up, down):  2.971E-01 0.000E+00

     total cpu time spent up to now is       34.0 secs

     total energy              =    -300.90812138 Ry
     estimated scf accuracy    <       0.19247829 Ry

     iteration #  7     ecut=   150.00 Ry     beta= 0.70
     CG style diagonalization
     ethr =  7.13E-04,  avg # of iterations =  3.8

     negative rho (up, down):  3.065E-01 0.000E+00

     total cpu time spent up to now is       38.7 secs

     total energy              =    -300.93781922 Ry
     estimated scf accuracy    <       0.23854727 Ry

     iteration #  8     ecut=   150.00 Ry     beta= 0.70
     CG style diagonalization
     ethr =  7.13E-04,  avg # of iterations =  3.1

     negative rho (up, down):  3.046E-01 0.000E+00

     total cpu time spent up to now is       42.5 secs

     total energy              =    -300.95414758 Ry
     estimated scf accuracy    <       0.11757609 Ry

     iteration #  9     ecut=   150.00 Ry     beta= 0.70
     CG style diagonalization
     ethr =  4.35E-04,  avg # of iterations =  3.1

     negative rho (up, down):  3.137E-01 0.000E+00

     total cpu time spent up to now is       46.3 secs

     total energy              =    -300.91593268 Ry
     estimated scf accuracy    <       0.14930084 Ry

     iteration # 10     ecut=   150.00 Ry     beta= 0.70
     CG style diagonalization
     ethr =  4.35E-04,  avg # of iterations =  3.2

     negative rho (up, down):  3.146E-01 0.000E+00

     total cpu time spent up to now is       50.3 secs

     total energy              =    -300.93237993 Ry
     estimated scf accuracy    <       0.00111554 Ry

     iteration # 11     ecut=   150.00 Ry     beta= 0.70
     CG style diagonalization
     c_bands:  1 eigenvalues not converged
     c_bands:  1 eigenvalues not converged
     c_bands:  2 eigenvalues not converged
     c_bands:  1 eigenvalues not converged
     c_bands:  1 eigenvalues not converged
     c_bands:  1 eigenvalues not converged
     ethr =  4.13E-06,  avg # of iterations =  6.2

     negative rho (up, down):  3.142E-01 0.000E+00

     total cpu time spent up to now is       58.6 secs

     total energy              =    -300.93600623 Ry
     estimated scf accuracy    <       0.01611445 Ry

     iteration # 12     ecut=   150.00 Ry     beta= 0.70
     CG style diagonalization
     ethr =  4.13E-06,  avg # of iterations =  3.3

     negative rho (up, down):  3.140E-01 0.000E+00

     total cpu time spent up to now is       62.8 secs

     total energy              =    -300.93529758 Ry
     estimated scf accuracy    <       0.00899840 Ry

     iteration # 13     ecut=   150.00 Ry     beta= 0.70
     CG style diagonalization
     c_bands:  1 eigenvalues not converged
     ethr =  4.13E-06,  avg # of iterations =  3.3

     negative rho (up, down):  3.139E-01 0.000E+00

     total cpu time spent up to now is       66.8 secs

     total energy              =    -300.93519255 Ry
     estimated scf accuracy    <       0.00240189 Ry

     iteration # 14     ecut=   150.00 Ry     beta= 0.70
     CG style diagonalization
     ethr =  4.13E-06,  avg # of iterations =  3.1

     negative rho (up, down):  3.137E-01 0.000E+00

     total cpu time spent up to now is       70.4 secs

     total energy              =    -300.93516606 Ry
     estimated scf accuracy    <       0.00044071 Ry

     iteration # 15     ecut=   150.00 Ry     beta= 0.70
     CG style diagonalization
     c_bands:  1 eigenvalues not converged
     ethr =  1.63E-06,  avg # of iterations =  3.6

     negative rho (up, down):  3.137E-01 0.000E+00

     total cpu time spent up to now is       74.8 secs

     total energy              =    -300.93527329 Ry
     estimated scf accuracy    <       0.00012113 Ry

     iteration # 16     ecut=   150.00 Ry     beta= 0.70
     CG style diagonalization
     c_bands:  1 eigenvalues not converged
     ethr =  4.49E-07,  avg # of iterations =  3.3

     negative rho (up, down):  3.138E-01 0.000E+00

     total cpu time spent up to now is       78.7 secs

     total energy              =    -300.93529220 Ry
     estimated scf accuracy    <       0.00001982 Ry

     iteration # 17     ecut=   150.00 Ry     beta= 0.70
     CG style diagonalization
     ethr =  7.34E-08,  avg # of iterations =  3.3

     negative rho (up, down):  3.138E-01 0.000E+00

     total cpu time spent up to now is       82.7 secs

     total energy              =    -300.93529572 Ry
     estimated scf accuracy    <       0.00000064 Ry

     iteration # 18     ecut=   150.00 Ry     beta= 0.70
     CG style diagonalization
     ethr =  2.38E-09,  avg # of iterations =  4.2

     negative rho (up, down):  3.138E-01 0.000E+00

     total cpu time spent up to now is       87.9 secs

     total energy              =    -300.93529652 Ry
     estimated scf accuracy    <       0.00000135 Ry

     iteration # 19     ecut=   150.00 Ry     beta= 0.70
     CG style diagonalization
     ethr =  2.38E-09,  avg # of iterations =  3.1

     negative rho (up, down):  3.137E-01 0.000E+00

     total cpu time spent up to now is       91.5 secs

     total energy              =    -300.93529651 Ry
     estimated scf accuracy    <       0.00000029 Ry

     iteration # 20     ecut=   150.00 Ry     beta= 0.70
     CG style diagonalization
     ethr =  1.07E-09,  avg # of iterations =  3.3

     negative rho (up, down):  3.137E-01 0.000E+00

     total cpu time spent up to now is       95.4 secs

     total energy              =    -300.93529657 Ry
     estimated scf accuracy    <       0.00000003 Ry

     iteration # 21     ecut=   150.00 Ry     beta= 0.70
     CG style diagonalization
     ethr =  1.05E-10,  avg # of iterations =  3.5

     negative rho (up, down):  3.137E-01 0.000E+00

     total cpu time spent up to now is       99.6 secs

     End of self-consistent calculation

     Number of k-points >= 100: set verbosity='high' to print the bands.

     the Fermi energy is    19.0569 ev

!    total energy              =    -300.93529658 Ry
     estimated scf accuracy    <          7.0E-11 Ry
     smearing contrib. (-TS)   =      -0.00011348 Ry
     internal energy E=F+TS    =    -300.93518310 Ry

     convergence has been achieved in  21 iterations

     negative rho (up, down):  3.137E-01 0.000E+00

     Forces acting on atoms (cartesian axes, Ry/au):

     atom    1 type  1   force =     0.00000000    0.00000000    0.00000000
     atom    2 type  2   force =     0.00000000    0.00000000    0.00000000

     Total force =     0.000000     Total SCF correction =     0.000000


     Computing stress (Cartesian axis) and pressure


     negative rho (up, down):  3.137E-01 0.000E+00
          total   stress  (Ry/bohr**3)                   (kbar)     P=      -89.91
  -0.00085467   0.00000000   0.00001771         -125.73        0.00        2.60
   0.00000000  -0.00028837   0.00000000            0.00      -42.42        0.00
   0.00001771   0.00000000  -0.00069057            2.60        0.00     -101.59


     Wentzcovitch Damped Cell Dynamics Minimization:
     convergence thresholds EPSE = 7.35E-05  EPSF = 1.94E-04

     Entering Dynamics;  it =     1   time =  0.00000 pico-seconds

  new lattice vectors (alat unit) :
   0.998780539   0.000000000   0.000025264
   0.000000000   0.963817273   0.000000000
  -0.005107615   0.000000000   1.177757031
  new unit-cell volume =    204.5178 (a.u.)^3
  new positions in cryst coord
Ti       0.000000000   0.000000000   0.000000000
Ir       0.500000000   0.500000000   0.500000000
  new positions in cart coord (alat unit)
Ti       0.000000000   0.000000000   0.000000000
Ir       0.496836462   0.481908636   0.588891148

     Ekin =     0.00000000 Ry    T =    0.0 K  Etot =     -300.93529658
     new unit-cell volume =    204.51781 a.u.^3 (    30.30641 Ang^3 )
     density =     21.22082 g/cm^3

CELL_PARAMETERS (alat=  5.65028300)
   0.998780539   0.000000000   0.000025264
   0.000000000   0.963817273   0.000000000
  -0.005107615   0.000000000   1.177757031

ATOMIC_POSITIONS (crystal)
Ti            0.0000000000        0.0000000000        0.0000000000    0   0   0
Ir            0.5000000000        0.5000000000        0.5000000000    0   0   0



     Writing output data file ./TiIr.Im.save/
     NEW-OLD atomic charge density approx. for the potential

     negative rho (up, down):  3.127E-01 0.000E+00
     extrapolated charge   26.93317, renormalised to   27.00000

     total cpu time spent up to now is      103.1 secs

     Self-consistent Calculation

     iteration #  1     ecut=   150.00 Ry     beta= 0.70
     CG style diagonalization
     c_bands:  1 eigenvalues not converged
     c_bands:  1 eigenvalues not converged
     ethr =  1.00E-06,  avg # of iterations =  3.9

     negative rho (up, down):  3.148E-01 0.000E+00

     total cpu time spent up to now is      109.0 secs

     total energy              =    -300.93478907 Ry
     estimated scf accuracy    <       0.00071140 Ry

     iteration #  2     ecut=   150.00 Ry     beta= 0.70
     CG style diagonalization
     ethr =  2.63E-06,  avg # of iterations =  4.8

     negative rho (up, down):  3.140E-01 0.000E+00

     total cpu time spent up to now is      114.7 secs

     total energy              =    -300.93536813 Ry
     estimated scf accuracy    <       0.00264449 Ry

     iteration #  3     ecut=   150.00 Ry     beta= 0.70
     CG style diagonalization
     ethr =  2.63E-06,  avg # of iterations =  3.7

     negative rho (up, down):  3.140E-01 0.000E+00

     total cpu time spent up to now is      119.1 secs

     total energy              =    -300.93562503 Ry
     estimated scf accuracy    <       0.00091499 Ry

     iteration #  4     ecut=   150.00 Ry     beta= 0.70
     CG style diagonalization
     ethr =  2.63E-06,  avg # of iterations =  3.1

     negative rho (up, down):  3.139E-01 0.000E+00

     total cpu time spent up to now is      122.8 secs

     total energy              =    -300.93567964 Ry
     estimated scf accuracy    <       0.00015206 Ry

     iteration #  5     ecut=   150.00 Ry     beta= 0.70
     CG style diagonalization
     ethr =  5.63E-07,  avg # of iterations =  3.1

     negative rho (up, down):  3.137E-01 0.000E+00

     total cpu time spent up to now is      126.5 secs

     total energy              =    -300.93565076 Ry
     estimated scf accuracy    <       0.00008348 Ry

     iteration #  6     ecut=   150.00 Ry     beta= 0.70
     CG style diagonalization
     ethr =  3.09E-07,  avg # of iterations =  3.4

     negative rho (up, down):  3.137E-01 0.000E+00

     total cpu time spent up to now is      130.6 secs

     total energy              =    -300.93566288 Ry
     estimated scf accuracy    <       0.00000871 Ry

     iteration #  7     ecut=   150.00 Ry     beta= 0.70
     CG style diagonalization
     ethr =  3.23E-08,  avg # of iterations =  3.3

     negative rho (up, down):  3.137E-01 0.000E+00

     total cpu time spent up to now is      134.6 secs

     total energy              =    -300.93566359 Ry
     estimated scf accuracy    <       0.00000258 Ry

     iteration #  8     ecut=   150.00 Ry     beta= 0.70
     CG style diagonalization
     ethr =  9.57E-09,  avg # of iterations =  3.4

     negative rho (up, down):  3.137E-01 0.000E+00

     total cpu time spent up to now is      138.6 secs

     total energy              =    -300.93566378 Ry
     estimated scf accuracy    <       0.00000044 Ry

     iteration #  9     ecut=   150.00 Ry     beta= 0.70
     CG style diagonalization
     ethr =  1.63E-09,  avg # of iterations =  3.8

     negative rho (up, down):  3.137E-01 0.000E+00

     total cpu time spent up to now is      143.2 secs

     total energy              =    -300.93566392 Ry
     estimated scf accuracy    <       0.00000007 Ry

     iteration # 10     ecut=   150.00 Ry     beta= 0.70
     CG style diagonalization
     ethr =  2.44E-10,  avg # of iterations =  3.5

     negative rho (up, down):  3.137E-01 0.000E+00

     total cpu time spent up to now is      147.4 secs

     End of self-consistent calculation

     Number of k-points >= 100: set verbosity='high' to print the bands.

     the Fermi energy is    19.1184 ev

!    total energy              =    -300.93566393 Ry
     estimated scf accuracy    <          8.8E-09 Ry
     smearing contrib. (-TS)   =      -0.00011298 Ry
     internal energy E=F+TS    =    -300.93555095 Ry

     convergence has been achieved in  10 iterations

     negative rho (up, down):  3.137E-01 0.000E+00

     Forces acting on atoms (cartesian axes, Ry/au):

     atom    1 type  1   force =     0.00000000    0.00000000    0.00000000
     atom    2 type  2   force =     0.00000000    0.00000000    0.00000000

     Total force =     0.000000     Total SCF correction =     0.000000


     Computing stress (Cartesian axis) and pressure


     negative rho (up, down):  3.137E-01 0.000E+00
          total   stress  (Ry/bohr**3)                   (kbar)     P=      -84.39
  -0.00081375   0.00000000   0.00001782         -119.71        0.00        2.62
   0.00000000  -0.00025643   0.00000000            0.00      -37.72        0.00
   0.00001782   0.00000000  -0.00065083            2.62        0.00      -95.74


     Entering Dynamics;  it =     2   time =  0.00097 pico-seconds

  new lattice vectors (alat unit) :
   0.995810291   0.000000000   0.000088921
   0.000000000   0.962892156   0.000000000
  -0.005017290   0.000000000   1.174944844
  new unit-cell volume =    203.2275 (a.u.)^3
  new positions in cryst coord
Ti       0.000000000   0.000000000   0.000000000
Ir       0.500000000   0.500000000   0.500000000
  new positions in cart coord (alat unit)
Ti       0.000000000   0.000000000   0.000000000
Ir       0.495396500   0.481446078   0.587516882

     Ekin =     0.00037334 Ry    T =   13.1 K  Etot =     -300.93529059
     new unit-cell volume =    203.22751 a.u.^3 (    30.11521 Ang^3 )
     density =     21.35555 g/cm^3

CELL_PARAMETERS (alat=  5.65028300)
   0.995810291   0.000000000   0.000088921
   0.000000000   0.962892156   0.000000000
  -0.005017290   0.000000000   1.174944844

ATOMIC_POSITIONS (crystal)
Ti            0.0000000000        0.0000000000        0.0000000000    0   0   0
Ir            0.5000000000        0.5000000000        0.5000000000    0   0   0



     Writing output data file ./TiIr.Im.save/
     NEW-OLD atomic charge density approx. for the potential

     negative rho (up, down):  3.112E-01 0.000E+00
     extrapolated charge   26.83810, renormalised to   27.00000

     total cpu time spent up to now is      150.7 secs

     Self-consistent Calculation

     iteration #  1     ecut=   150.00 Ry     beta= 0.70
     CG style diagonalization
     c_bands:  1 eigenvalues not converged
     c_bands:  2 eigenvalues not converged
     c_bands:  1 eigenvalues not converged
     c_bands:  1 eigenvalues not converged
     ethr =  1.00E-06,  avg # of iterations =  5.9

     negative rho (up, down):  3.166E-01 0.000E+00

     total cpu time spent up to now is      159.1 secs

     total energy              =    -300.93063891 Ry
     estimated scf accuracy    <       0.00489704 Ry

     iteration #  2     ecut=   150.00 Ry     beta= 0.70
     CG style diagonalization
     ethr =  1.81E-05,  avg # of iterations =  4.8

     negative rho (up, down):  3.144E-01 0.000E+00

     total cpu time spent up to now is      164.8 secs

     total energy              =    -300.93328510 Ry
     estimated scf accuracy    <       0.02618946 Ry

     iteration #  3     ecut=   150.00 Ry     beta= 0.70
     CG style diagonalization
     ethr =  1.81E-05,  avg # of iterations =  3.8

     negative rho (up, down):  3.144E-01 0.000E+00

     total cpu time spent up to now is      169.3 secs

     total energy              =    -300.93607979 Ry
     estimated scf accuracy    <       0.00692646 Ry

     iteration #  4     ecut=   150.00 Ry     beta= 0.70
     CG style diagonalization
     ethr =  1.81E-05,  avg # of iterations =  3.2

     negative rho (up, down):  3.141E-01 0.000E+00

     total cpu time spent up to now is      173.0 secs

     total energy              =    -300.93655306 Ry
     estimated scf accuracy    <       0.00097756 Ry

     iteration #  5     ecut=   150.00 Ry     beta= 0.70
     CG style diagonalization
     ethr =  3.62E-06,  avg # of iterations =  3.2

     negative rho (up, down):  3.138E-01 0.000E+00

     total cpu time spent up to now is      176.8 secs

     total energy              =    -300.93641743 Ry
     estimated scf accuracy    <       0.00054210 Ry

     iteration #  6     ecut=   150.00 Ry     beta= 0.70
     CG style diagonalization
     ethr =  2.01E-06,  avg # of iterations =  3.4

     negative rho (up, down):  3.137E-01 0.000E+00

     total cpu time spent up to now is      180.8 secs

     total energy              =    -300.93646085 Ry
     estimated scf accuracy    <       0.00012441 Ry

     iteration #  7     ecut=   150.00 Ry     beta= 0.70
     CG style diagonalization
     ethr =  4.61E-07,  avg # of iterations =  3.2

     negative rho (up, down):  3.136E-01 0.000E+00

     total cpu time spent up to now is      184.5 secs

     total energy              =    -300.93645655 Ry
     estimated scf accuracy    <       0.00003765 Ry

     iteration #  8     ecut=   150.00 Ry     beta= 0.70
     CG style diagonalization
     ethr =  1.39E-07,  avg # of iterations =  3.5

     negative rho (up, down):  3.136E-01 0.000E+00

     total cpu time spent up to now is      188.7 secs

     total energy              =    -300.93646500 Ry
     estimated scf accuracy    <       0.00000149 Ry

     iteration #  9     ecut=   150.00 Ry     beta= 0.70
     CG style diagonalization
     ethr =  5.53E-09,  avg # of iterations =  4.2

     negative rho (up, down):  3.136E-01 0.000E+00

     total cpu time spent up to now is      193.8 secs

     total energy              =    -300.93646582 Ry
     estimated scf accuracy    <       0.00000081 Ry

     iteration # 10     ecut=   150.00 Ry     beta= 0.70
     CG style diagonalization
     ethr =  2.99E-09,  avg # of iterations =  3.3

     negative rho (up, down):  3.136E-01 0.000E+00

     total cpu time spent up to now is      197.7 secs

     total energy              =    -300.93646587 Ry
     estimated scf accuracy    <       0.00000021 Ry

     iteration # 11     ecut=   150.00 Ry     beta= 0.70
     CG style diagonalization
     ethr =  7.76E-10,  avg # of iterations =  3.4

     negative rho (up, down):  3.136E-01 0.000E+00

     total cpu time spent up to now is      201.7 secs

     total energy              =    -300.93646588 Ry
     estimated scf accuracy    <       0.00000009 Ry

     iteration # 12     ecut=   150.00 Ry     beta= 0.70
     CG style diagonalization
     ethr =  3.25E-10,  avg # of iterations =  3.3

     negative rho (up, down):  3.136E-01 0.000E+00

     total cpu time spent up to now is      205.5 secs

     End of self-consistent calculation

     Number of k-points >= 100: set verbosity='high' to print the bands.

     the Fermi energy is    19.2682 ev

!    total energy              =    -300.93646589 Ry
     estimated scf accuracy    <          3.3E-09 Ry
     smearing contrib. (-TS)   =      -0.00011185 Ry
     internal energy E=F+TS    =    -300.93635404 Ry

     convergence has been achieved in  12 iterations

     negative rho (up, down):  3.136E-01 0.000E+00

     Forces acting on atoms (cartesian axes, Ry/au):

     atom    1 type  1   force =     0.00000000    0.00000000    0.00000000
     atom    2 type  2   force =     0.00000000    0.00000000    0.00000000

     Total force =     0.000000     Total SCF correction =     0.000000


     Computing stress (Cartesian axis) and pressure


     negative rho (up, down):  3.136E-01 0.000E+00
          total   stress  (Ry/bohr**3)                   (kbar)     P=      -71.37
  -0.00071641   0.00000000   0.00001815         -105.39        0.00        2.67
   0.00000000  -0.00018245   0.00000000            0.00      -26.84        0.00
   0.00001815   0.00000000  -0.00055662            2.67        0.00      -81.88


     Entering Dynamics;  it =     3   time =  0.00194 pico-seconds

  new lattice vectors (alat unit) :
   0.991278160   0.000000000   0.000192265
   0.000000000   0.961594887   0.000000000
  -0.004872144   0.000000000   1.170703296
  new unit-cell volume =    201.3008 (a.u.)^3
  new positions in cryst coord
Ti       0.000000000   0.000000000   0.000000000
Ir       0.500000000   0.500000000   0.500000000
  new positions in cart coord (alat unit)
Ti       0.000000000   0.000000000   0.000000000
Ir       0.493203008   0.480797443   0.585447781

     Ekin =     0.00117810 Ry    T =   27.2 K  Etot =     -300.93528779
     new unit-cell volume =    201.30079 a.u.^3 (    29.82970 Ang^3 )
     density =     21.55995 g/cm^3

CELL_PARAMETERS (alat=  5.65028300)
   0.991278160   0.000000000   0.000192265
   0.000000000   0.961594887   0.000000000
  -0.004872144   0.000000000   1.170703296

ATOMIC_POSITIONS (crystal)
Ti            0.0000000000        0.0000000000        0.0000000000    0   0   0
Ir            0.5000000000        0.5000000000        0.5000000000    0   0   0



     Writing output data file ./TiIr.Im.save/
     NEW-OLD atomic charge density approx. for the potential

     negative rho (up, down):  3.099E-01 0.000E+00
     extrapolated charge   26.75593, renormalised to   27.00000

     total cpu time spent up to now is      208.9 secs

     Self-consistent Calculation

     iteration #  1     ecut=   150.00 Ry     beta= 0.70
     CG style diagonalization
     c_bands:  1 eigenvalues not converged
     c_bands:  1 eigenvalues not converged
     c_bands:  1 eigenvalues not converged
     c_bands:  1 eigenvalues not converged
     c_bands:  2 eigenvalues not converged
     c_bands:  1 eigenvalues not converged
     c_bands:  1 eigenvalues not converged
     c_bands:  1 eigenvalues not converged
     c_bands:  1 eigenvalues not converged
     c_bands:  1 eigenvalues not converged
     c_bands:  1 eigenvalues not converged
     c_bands:  1 eigenvalues not converged
     c_bands:  1 eigenvalues not converged
     c_bands:  1 eigenvalues not converged
     ethr =  1.00E-06,  avg # of iterations =  7.0

     negative rho (up, down):  3.180E-01 0.000E+00

     total cpu time spent up to now is      218.9 secs

     total energy              =    -300.92420371 Ry
     estimated scf accuracy    <       0.01116619 Ry

     iteration #  2     ecut=   150.00 Ry     beta= 0.70
     CG style diagonalization
     ethr =  4.14E-05,  avg # of iterations =  4.8

     negative rho (up, down):  3.147E-01 0.000E+00

     total cpu time spent up to now is      224.6 secs

     total energy              =    -300.93044587 Ry
     estimated scf accuracy    <       0.05789802 Ry

     iteration #  3     ecut=   150.00 Ry     beta= 0.70
     CG style diagonalization
     ethr =  4.14E-05,  avg # of iterations =  3.8

     negative rho (up, down):  3.146E-01 0.000E+00

     total cpu time spent up to now is      229.2 secs

     total energy              =    -300.93660887 Ry
     estimated scf accuracy    <       0.01524191 Ry

     iteration #  4     ecut=   150.00 Ry     beta= 0.70
     CG style diagonalization
     ethr =  4.14E-05,  avg # of iterations =  3.2

     negative rho (up, down):  3.142E-01 0.000E+00

     total cpu time spent up to now is      233.0 secs

     total energy              =    -300.93765647 Ry
     estimated scf accuracy    <       0.00221594 Ry

     iteration #  5     ecut=   150.00 Ry     beta= 0.70
     CG style diagonalization
     ethr =  8.21E-06,  avg # of iterations =  3.1

     negative rho (up, down):  3.137E-01 0.000E+00

     total cpu time spent up to now is      236.7 secs

     total energy              =    -300.93732150 Ry
     estimated scf accuracy    <       0.00127221 Ry

     iteration #  6     ecut=   150.00 Ry     beta= 0.70
     CG style diagonalization
     ethr =  4.71E-06,  avg # of iterations =  3.4

     negative rho (up, down):  3.136E-01 0.000E+00

     total cpu time spent up to now is      240.7 secs

     total energy              =    -300.93742259 Ry
     estimated scf accuracy    <       0.00028366 Ry

     iteration #  7     ecut=   150.00 Ry     beta= 0.70
     CG style diagonalization
     ethr =  1.05E-06,  avg # of iterations =  3.2

     negative rho (up, down):  3.134E-01 0.000E+00

     total cpu time spent up to now is      244.5 secs

     total energy              =    -300.93741451 Ry
     estimated scf accuracy    <       0.00007786 Ry

     iteration #  8     ecut=   150.00 Ry     beta= 0.70
     CG style diagonalization
     ethr =  2.88E-07,  avg # of iterations =  3.6

     negative rho (up, down):  3.134E-01 0.000E+00

     total cpu time spent up to now is      248.8 secs

     total energy              =    -300.93743730 Ry
     estimated scf accuracy    <       0.00000520 Ry

     iteration #  9     ecut=   150.00 Ry     beta= 0.70
     CG style diagonalization
     ethr =  1.92E-08,  avg # of iterations =  3.5

     negative rho (up, down):  3.134E-01 0.000E+00

     total cpu time spent up to now is      253.3 secs

     total energy              =    -300.93743761 Ry
     estimated scf accuracy    <       0.00000343 Ry

     iteration # 10     ecut=   150.00 Ry     beta= 0.70
     CG style diagonalization
     ethr =  1.27E-08,  avg # of iterations =  3.4

     negative rho (up, down):  3.135E-01 0.000E+00

     total cpu time spent up to now is      257.3 secs

     total energy              =    -300.93743803 Ry
     estimated scf accuracy    <       0.00000073 Ry

     iteration # 11     ecut=   150.00 Ry     beta= 0.70
     CG style diagonalization
     ethr =  2.69E-09,  avg # of iterations =  3.2

     negative rho (up, down):  3.135E-01 0.000E+00

     total cpu time spent up to now is      261.1 secs

     total energy              =    -300.93743803 Ry
     estimated scf accuracy    <       0.00000025 Ry

     iteration # 12     ecut=   150.00 Ry     beta= 0.70
     CG style diagonalization
     ethr =  9.08E-10,  avg # of iterations =  3.4

     negative rho (up, down):  3.135E-01 0.000E+00

     total cpu time spent up to now is      265.3 secs

     End of self-consistent calculation

     Number of k-points >= 100: set verbosity='high' to print the bands.

     the Fermi energy is    19.4949 ev

!    total energy              =    -300.93743807 Ry
     estimated scf accuracy    <          6.9E-09 Ry
     smearing contrib. (-TS)   =      -0.00011063 Ry
     internal energy E=F+TS    =    -300.93732745 Ry

     convergence has been achieved in  12 iterations

     negative rho (up, down):  3.135E-01 0.000E+00

     Forces acting on atoms (cartesian axes, Ry/au):

     atom    1 type  1   force =     0.00000000    0.00000000    0.00000000
     atom    2 type  2   force =     0.00000000    0.00000000    0.00000000

     Total force =     0.000000     Total SCF correction =     0.000000


     Computing stress (Cartesian axis) and pressure


     negative rho (up, down):  3.135E-01 0.000E+00
          total   stress  (Ry/bohr**3)                   (kbar)     P=      -50.58
  -0.00055945   0.00000000   0.00001872          -82.30        0.00        2.75
   0.00000000  -0.00006523   0.00000000            0.00       -9.60        0.00
   0.00001872   0.00000000  -0.00040690            2.75        0.00      -59.86


     Entering Dynamics;  it =     4   time =  0.00290 pico-seconds

  new lattice vectors (alat unit) :
   0.985497859   0.000000000   0.000337433
   0.000000000   0.960177595  -0.000000000
  -0.004671271  -0.000000000   1.165392980
  new unit-cell volume =    198.9257 (a.u.)^3
  new positions in cryst coord
Ti       0.000000000   0.000000000   0.000000000
Ir       0.500000000   0.500000000   0.500000000
  new positions in cart coord (alat unit)
Ti       0.000000000   0.000000000   0.000000000
Ir       0.490413294   0.480088798   0.582865206

     Ekin =     0.00216151 Ry    T =   43.4 K  Etot =     -300.93527656
     new unit-cell volume =    198.92568 a.u.^3 (    29.47774 Ang^3 )
     density =     21.81737 g/cm^3

CELL_PARAMETERS (alat=  5.65028300)
   0.985497859   0.000000000   0.000337433
   0.000000000   0.960177595  -0.000000000
  -0.004671271  -0.000000000   1.165392980

ATOMIC_POSITIONS (crystal)
Ti            0.0000000000        0.0000000000        0.0000000000    0   0   0
Ir            0.5000000000        0.5000000000        0.5000000000    0   0   0



     Writing output data file ./TiIr.Im.save/
     NEW-OLD atomic charge density approx. for the potential

     negative rho (up, down):  3.087E-01 0.000E+00
     extrapolated charge   26.69554, renormalised to   27.00000

     total cpu time spent up to now is      268.5 secs

     Self-consistent Calculation

     iteration #  1     ecut=   150.00 Ry     beta= 0.70
     CG style diagonalization
     c_bands:  1 eigenvalues not converged
     c_bands:  1 eigenvalues not converged
     c_bands:  1 eigenvalues not converged
     c_bands:  1 eigenvalues not converged
     c_bands:  1 eigenvalues not converged
     c_bands:  1 eigenvalues not converged
     c_bands:  1 eigenvalues not converged
     c_bands:  1 eigenvalues not converged
     c_bands:  1 eigenvalues not converged
     c_bands:  1 eigenvalues not converged
     c_bands:  1 eigenvalues not converged
     c_bands:  1 eigenvalues not converged
     c_bands:  1 eigenvalues not converged
     c_bands:  1 eigenvalues not converged
     c_bands:  1 eigenvalues not converged
     c_bands:  1 eigenvalues not converged
     c_bands:  1 eigenvalues not converged
     c_bands:  1 eigenvalues not converged
     ethr =  1.00E-06,  avg # of iterations =  7.5

     negative rho (up, down):  3.188E-01 0.000E+00

     total cpu time spent up to now is      279.2 secs

     total energy              =    -300.91810024 Ry
     estimated scf accuracy    <       0.01702925 Ry

     iteration #  2     ecut=   150.00 Ry     beta= 0.70
     CG style diagonalization
     ethr =  6.31E-05,  avg # of iterations =  4.8

     negative rho (up, down):  3.147E-01 0.000E+00

     total cpu time spent up to now is      284.9 secs

     total energy              =    -300.92788555 Ry
     estimated scf accuracy    <       0.08567012 Ry

     iteration #  3     ecut=   150.00 Ry     beta= 0.70
     CG style diagonalization
     ethr =  6.31E-05,  avg # of iterations =  3.8

     negative rho (up, down):  3.146E-01 0.000E+00

     total cpu time spent up to now is      289.4 secs

     total energy              =    -300.93709455 Ry
     estimated scf accuracy    <       0.02193508 Ry

     iteration #  4     ecut=   150.00 Ry     beta= 0.70
     CG style diagonalization
     ethr =  6.31E-05,  avg # of iterations =  3.2

     negative rho (up, down):  3.142E-01 0.000E+00

     total cpu time spent up to now is      293.2 secs

     total energy              =    -300.93859448 Ry
     estimated scf accuracy    <       0.00334730 Ry

     iteration #  5     ecut=   150.00 Ry     beta= 0.70
     CG style diagonalization
     ethr =  1.24E-05,  avg # of iterations =  3.1

     negative rho (up, down):  3.135E-01 0.000E+00

     total cpu time spent up to now is      296.9 secs

     total energy              =    -300.93803370 Ry
     estimated scf accuracy    <       0.00196132 Ry

     iteration #  6     ecut=   150.00 Ry     beta= 0.70
     CG style diagonalization
     ethr =  7.26E-06,  avg # of iterations =  3.4

     negative rho (up, down):  3.134E-01 0.000E+00

     total cpu time spent up to now is      301.0 secs

     total energy              =    -300.93822620 Ry
     estimated scf accuracy    <       0.00039893 Ry

     iteration #  7     ecut=   150.00 Ry     beta= 0.70
     CG style diagonalization
     ethr =  1.48E-06,  avg # of iterations =  3.2

     negative rho (up, down):  3.131E-01 0.000E+00

     total cpu time spent up to now is      304.7 secs

     total energy              =    -300.93821062 Ry
     estimated scf accuracy    <       0.00011855 Ry

     iteration #  8     ecut=   150.00 Ry     beta= 0.70
     CG style diagonalization
     ethr =  4.39E-07,  avg # of iterations =  3.6

     negative rho (up, down):  3.131E-01 0.000E+00

     total cpu time spent up to now is      309.0 secs

     total energy              =    -300.93824268 Ry
     estimated scf accuracy    <       0.00000847 Ry

     iteration #  9     ecut=   150.00 Ry     beta= 0.70
     CG style diagonalization
     ethr =  3.14E-08,  avg # of iterations =  3.5

     negative rho (up, down):  3.132E-01 0.000E+00

     total cpu time spent up to now is      313.4 secs

     total energy              =    -300.93824380 Ry
     estimated scf accuracy    <       0.00000404 Ry

     iteration # 10     ecut=   150.00 Ry     beta= 0.70
     CG style diagonalization
     ethr =  1.50E-08,  avg # of iterations =  3.4

     negative rho (up, down):  3.132E-01 0.000E+00

     total cpu time spent up to now is      317.3 secs

     total energy              =    -300.93824426 Ry
     estimated scf accuracy    <       0.00000084 Ry

     iteration # 11     ecut=   150.00 Ry     beta= 0.70
     CG style diagonalization
     ethr =  3.11E-09,  avg # of iterations =  3.2

     negative rho (up, down):  3.132E-01 0.000E+00

     total cpu time spent up to now is      321.2 secs

     total energy              =    -300.93824431 Ry
     estimated scf accuracy    <       0.00000018 Ry

     iteration # 12     ecut=   150.00 Ry     beta= 0.70
     CG style diagonalization
     ethr =  6.55E-10,  avg # of iterations =  3.5

     negative rho (up, down):  3.132E-01 0.000E+00

     total cpu time spent up to now is      325.3 secs

     End of self-consistent calculation

     Number of k-points >= 100: set verbosity='high' to print the bands.

     the Fermi energy is    19.7806 ev

!    total energy              =    -300.93824435 Ry
     estimated scf accuracy    <          9.8E-09 Ry
     smearing contrib. (-TS)   =      -0.00010945 Ry
     internal energy E=F+TS    =    -300.93813490 Ry

     convergence has been achieved in  12 iterations

     negative rho (up, down):  3.132E-01 0.000E+00

     Forces acting on atoms (cartesian axes, Ry/au):

     atom    1 type  1   force =     0.00000000    0.00000000    0.00000000
     atom    2 type  2   force =     0.00000000    0.00000000    0.00000000

     Total force =     0.000000     Total SCF correction =     0.000000


     Computing stress (Cartesian axis) and pressure


     negative rho (up, down):  3.132E-01 0.000E+00
          total   stress  (Ry/bohr**3)                   (kbar)     P=      -23.27
  -0.00034975   0.00000000   0.00001941          -51.45        0.00        2.86
   0.00000000   0.00008567  -0.00000000            0.00       12.60       -0.00
   0.00001941  -0.00000000  -0.00021043            2.86       -0.00      -30.96


     Entering Dynamics;  it =     5   time =  0.00387 pico-seconds

  new lattice vectors (alat unit) :
   0.978903803   0.000000000   0.000527029
   0.000000000   0.961083186  -0.000000000
  -0.004413836  -0.000000000   1.159502566
  new unit-cell volume =    196.7815 (a.u.)^3
  new positions in cryst coord
Ti       0.000000000   0.000000000   0.000000000
Ir       0.500000000   0.500000000   0.500000000
  new positions in cart coord (alat unit)
Ti       0.000000000   0.000000000   0.000000000
Ir       0.487244984   0.480541593   0.580014797

     Ekin =     0.00298438 Ry    T =   58.7 K  Etot =     -300.93525997
     new unit-cell volume =    196.78147 a.u.^3 (    29.16001 Ang^3 )
     density =     22.05510 g/cm^3

CELL_PARAMETERS (alat=  5.65028300)
   0.978903803   0.000000000   0.000527029
   0.000000000   0.961083186  -0.000000000
  -0.004413836  -0.000000000   1.159502566

ATOMIC_POSITIONS (crystal)
Ti            0.0000000000        0.0000000000        0.0000000000    0   0   0
Ir            0.5000000000        0.5000000000        0.5000000000    0   0   0



     Writing output data file ./TiIr.Im.save/
     NEW-OLD atomic charge density approx. for the potential

     negative rho (up, down):  3.088E-01 0.000E+00
     extrapolated charge   26.72214, renormalised to   27.00000

     total cpu time spent up to now is      328.6 secs

     Self-consistent Calculation

     iteration #  1     ecut=   150.00 Ry     beta= 0.70
     CG style diagonalization
     c_bands:  1 eigenvalues not converged
     c_bands:  1 eigenvalues not converged
     c_bands:  1 eigenvalues not converged
     c_bands:  2 eigenvalues not converged
     c_bands:  1 eigenvalues not converged
     c_bands:  1 eigenvalues not converged
     c_bands:  1 eigenvalues not converged
     c_bands:  1 eigenvalues not converged
     c_bands:  1 eigenvalues not converged
     c_bands:  1 eigenvalues not converged
     c_bands:  1 eigenvalues not converged
     c_bands:  1 eigenvalues not converged
     ethr =  1.00E-06,  avg # of iterations =  7.7

     negative rho (up, down):  3.179E-01 0.000E+00

     total cpu time spent up to now is      339.3 secs

     total energy              =    -300.92244322 Ry
     estimated scf accuracy    <       0.01371292 Ry

     iteration #  2     ecut=   150.00 Ry     beta= 0.70
     CG style diagonalization
     ethr =  5.08E-05,  avg # of iterations =  4.8

     negative rho (up, down):  3.143E-01 0.000E+00

     total cpu time spent up to now is      344.9 secs

     total energy              =    -300.93023637 Ry
     estimated scf accuracy    <       0.06983040 Ry

     iteration #  3     ecut=   150.00 Ry     beta= 0.70
     CG style diagonalization
     ethr =  5.08E-05,  avg # of iterations =  3.8

     negative rho (up, down):  3.141E-01 0.000E+00

     total cpu time spent up to now is      349.4 secs

     total energy              =    -300.93780096 Ry
     estimated scf accuracy    <       0.01701612 Ry

     iteration #  4     ecut=   150.00 Ry     beta= 0.70
     CG style diagonalization
     ethr =  5.08E-05,  avg # of iterations =  3.2

     negative rho (up, down):  3.137E-01 0.000E+00

     total cpu time spent up to now is      353.0 secs

     total energy              =    -300.93892241 Ry
     estimated scf accuracy    <       0.00266280 Ry

     iteration #  5     ecut=   150.00 Ry     beta= 0.70
     CG style diagonalization
     ethr =  9.86E-06,  avg # of iterations =  3.2

     negative rho (up, down):  3.130E-01 0.000E+00

     total cpu time spent up to now is      356.7 secs

     total energy              =    -300.93842103 Ry
     estimated scf accuracy    <       0.00146247 Ry

     iteration #  6     ecut=   150.00 Ry     beta= 0.70
     CG style diagonalization
     ethr =  5.42E-06,  avg # of iterations =  3.6

     negative rho (up, down):  3.129E-01 0.000E+00

     total cpu time spent up to now is      360.8 secs

     total energy              =    -300.93866132 Ry
     estimated scf accuracy    <       0.00021255 Ry

     iteration #  7     ecut=   150.00 Ry     beta= 0.70
     CG style diagonalization
     ethr =  7.87E-07,  avg # of iterations =  3.3

     negative rho (up, down):  3.129E-01 0.000E+00

     total cpu time spent up to now is      364.7 secs

     total energy              =    -300.93867978 Ry
     estimated scf accuracy    <       0.00004168 Ry

     iteration #  8     ecut=   150.00 Ry     beta= 0.70
     CG style diagonalization
     ethr =  1.54E-07,  avg # of iterations =  3.5

     negative rho (up, down):  3.129E-01 0.000E+00

     total cpu time spent up to now is      368.8 secs

     total energy              =    -300.93868733 Ry
     estimated scf accuracy    <       0.00000929 Ry

     iteration #  9     ecut=   150.00 Ry     beta= 0.70
     CG style diagonalization
     ethr =  3.44E-08,  avg # of iterations =  3.3

     negative rho (up, down):  3.129E-01 0.000E+00

     total cpu time spent up to now is      372.7 secs

     total energy              =    -300.93868828 Ry
     estimated scf accuracy    <       0.00000162 Ry

     iteration # 10     ecut=   150.00 Ry     beta= 0.70
     CG style diagonalization
     ethr =  6.01E-09,  avg # of iterations =  3.4

     negative rho (up, down):  3.129E-01 0.000E+00

     total cpu time spent up to now is      376.8 secs

     total energy              =    -300.93868856 Ry
     estimated scf accuracy    <       0.00000006 Ry

     iteration # 11     ecut=   150.00 Ry     beta= 0.70
     CG style diagonalization
     ethr =  2.09E-10,  avg # of iterations =  4.5

     negative rho (up, down):  3.129E-01 0.000E+00

     total cpu time spent up to now is      382.2 secs

     total energy              =    -300.93868862 Ry
     estimated scf accuracy    <       0.00000004 Ry

     iteration # 12     ecut=   150.00 Ry     beta= 0.70
     CG style diagonalization
     ethr =  1.35E-10,  avg # of iterations =  3.1

     negative rho (up, down):  3.129E-01 0.000E+00

     total cpu time spent up to now is      385.8 secs

     total energy              =    -300.93868861 Ry
     estimated scf accuracy    <       0.00000002 Ry

     iteration # 13     ecut=   150.00 Ry     beta= 0.70
     CG style diagonalization
     ethr =  6.28E-11,  avg # of iterations =  3.3

     negative rho (up, down):  3.129E-01 0.000E+00

     total cpu time spent up to now is      389.6 secs

     End of self-consistent calculation

     Number of k-points >= 100: set verbosity='high' to print the bands.

     the Fermi energy is    20.0535 ev

!    total energy              =    -300.93868861 Ry
     estimated scf accuracy    <          2.4E-09 Ry
     smearing contrib. (-TS)   =      -0.00010732 Ry
     internal energy E=F+TS    =    -300.93858129 Ry

     convergence has been achieved in  13 iterations

     negative rho (up, down):  3.129E-01 0.000E+00

     Forces acting on atoms (cartesian axes, Ry/au):

     atom    1 type  1   force =     0.00000000    0.00000000    0.00000000
     atom    2 type  2   force =     0.00000000    0.00000000    0.00000000

     Total force =     0.000000     Total SCF correction =     0.000000


     Computing stress (Cartesian axis) and pressure


     negative rho (up, down):  3.129E-01 0.000E+00
          total   stress  (Ry/bohr**3)                   (kbar)     P=        2.92
  -0.00012100   0.00000000   0.00001961          -17.80        0.00        2.88
   0.00000000   0.00018441   0.00000000            0.00       27.13        0.00
   0.00001961   0.00000000  -0.00000388            2.88        0.00       -0.57


     Entering Dynamics;  it =     6   time =  0.00484 pico-seconds

  new lattice vectors (alat unit) :
   0.972003519  -0.000000000   0.000761993
  -0.000000000   0.961554905  -0.000000000
  -0.004101339  -0.000000000   1.153576839
  new unit-cell volume =    194.4913 (a.u.)^3
  new positions in cryst coord
Ti       0.000000000   0.000000000   0.000000000
Ir       0.500000000   0.500000000   0.500000000
  new positions in cart coord (alat unit)
Ti       0.000000000   0.000000000   0.000000000
Ir       0.483951090   0.480777452   0.577169416

     Ekin =     0.00333508 Ry    T =   70.4 K  Etot =     -300.93535354
     new unit-cell volume =    194.49134 a.u.^3 (    28.82064 Ang^3 )
     density =     22.31480 g/cm^3

CELL_PARAMETERS (alat=  5.65028300)
   0.972003519  -0.000000000   0.000761993
  -0.000000000   0.961554905  -0.000000000
  -0.004101339  -0.000000000   1.153576839

ATOMIC_POSITIONS (crystal)
Ti            0.0000000000        0.0000000000        0.0000000000    0   0   0
Ir            0.5000000000        0.5000000000        0.5000000000    0   0   0



     Writing output data file ./TiIr.Im.save/
     NEW-OLD atomic charge density approx. for the potential

     negative rho (up, down):  3.082E-01 0.000E+00
     extrapolated charge   26.69974, renormalised to   27.00000

     total cpu time spent up to now is      392.6 secs

     Self-consistent Calculation

     iteration #  1     ecut=   150.00 Ry     beta= 0.70
     CG style diagonalization
     c_bands:  1 eigenvalues not converged
     c_bands:  1 eigenvalues not converged
     c_bands:  1 eigenvalues not converged
     c_bands:  1 eigenvalues not converged
     c_bands:  1 eigenvalues not converged
     c_bands:  1 eigenvalues not converged
     c_bands:  2 eigenvalues not converged
     c_bands:  1 eigenvalues not converged
     c_bands:  1 eigenvalues not converged
     c_bands:  1 eigenvalues not converged
     c_bands:  1 eigenvalues not converged
     c_bands:  1 eigenvalues not converged
     c_bands:  1 eigenvalues not converged
     c_bands:  1 eigenvalues not converged
     c_bands:  1 eigenvalues not converged
     c_bands:  1 eigenvalues not converged
     ethr =  1.00E-06,  avg # of iterations =  7.8

     negative rho (up, down):  3.179E-01 0.000E+00

     total cpu time spent up to now is      403.5 secs

     total energy              =    -300.92016528 Ry
     estimated scf accuracy    <       0.01554896 Ry

     iteration #  2     ecut=   150.00 Ry     beta= 0.70
     CG style diagonalization
     ethr =  5.76E-05,  avg # of iterations =  4.8

     negative rho (up, down):  3.141E-01 0.000E+00

     total cpu time spent up to now is      409.2 secs

     total energy              =    -300.92926658 Ry
     estimated scf accuracy    <       0.07688925 Ry

     iteration #  3     ecut=   150.00 Ry     beta= 0.70
     CG style diagonalization
     ethr =  5.76E-05,  avg # of iterations =  3.8

     negative rho (up, down):  3.139E-01 0.000E+00

     total cpu time spent up to now is      413.7 secs

     total energy              =    -300.93765776 Ry
     estimated scf accuracy    <       0.01853343 Ry

     iteration #  4     ecut=   150.00 Ry     beta= 0.70
     CG style diagonalization
     ethr =  5.76E-05,  avg # of iterations =  3.1

     negative rho (up, down):  3.135E-01 0.000E+00

     total cpu time spent up to now is      417.4 secs

     total energy              =    -300.93889494 Ry
     estimated scf accuracy    <       0.00298127 Ry

     iteration #  5     ecut=   150.00 Ry     beta= 0.70
     CG style diagonalization
     ethr =  1.10E-05,  avg # of iterations =  3.1

     negative rho (up, down):  3.127E-01 0.000E+00

     total cpu time spent up to now is      421.1 secs

     total energy              =    -300.93824681 Ry
     estimated scf accuracy    <       0.00172969 Ry

     iteration #  6     ecut=   150.00 Ry     beta= 0.70
     CG style diagonalization
     ethr =  6.41E-06,  avg # of iterations =  3.6

     negative rho (up, down):  3.127E-01 0.000E+00

     total cpu time spent up to now is      425.3 secs

     total energy              =    -300.93856893 Ry
     estimated scf accuracy    <       0.00023207 Ry

     iteration #  7     ecut=   150.00 Ry     beta= 0.70
     CG style diagonalization
     ethr =  8.60E-07,  avg # of iterations =  3.3

     negative rho (up, down):  3.126E-01 0.000E+00

     total cpu time spent up to now is      429.3 secs

     total energy              =    -300.93858051 Ry
     estimated scf accuracy    <       0.00007579 Ry

     iteration #  8     ecut=   150.00 Ry     beta= 0.70
     CG style diagonalization
     ethr =  2.81E-07,  avg # of iterations =  3.3

     negative rho (up, down):  3.126E-01 0.000E+00

     total cpu time spent up to now is      433.2 secs

     total energy              =    -300.93858711 Ry
     estimated scf accuracy    <       0.00001584 Ry

     iteration #  9     ecut=   150.00 Ry     beta= 0.70
     CG style diagonalization
     ethr =  5.87E-08,  avg # of iterations =  3.3

     negative rho (up, down):  3.126E-01 0.000E+00

     total cpu time spent up to now is      437.2 secs

     total energy              =    -300.93858986 Ry
     estimated scf accuracy    <       0.00000050 Ry

     iteration # 10     ecut=   150.00 Ry     beta= 0.70
     CG style diagonalization
     ethr =  1.85E-09,  avg # of iterations =  4.0

     negative rho (up, down):  3.126E-01 0.000E+00

     total cpu time spent up to now is      442.2 secs

     total energy              =    -300.93859026 Ry
     estimated scf accuracy    <       0.00000011 Ry

     iteration # 11     ecut=   150.00 Ry     beta= 0.70
     CG style diagonalization
     ethr =  4.05E-10,  avg # of iterations =  3.5

     negative rho (up, down):  3.126E-01 0.000E+00

     total cpu time spent up to now is      446.4 secs

     total energy              =    -300.93859030 Ry
     estimated scf accuracy    <       0.00000006 Ry

     iteration # 12     ecut=   150.00 Ry     beta= 0.70
     CG style diagonalization
     ethr =  2.20E-10,  avg # of iterations =  3.3

     negative rho (up, down):  3.126E-01 0.000E+00

     total cpu time spent up to now is      450.3 secs

     total energy              =    -300.93859030 Ry
     estimated scf accuracy    <       0.00000012 Ry

     iteration # 13     ecut=   150.00 Ry     beta= 0.70
     CG style diagonalization
     ethr =  2.20E-10,  avg # of iterations =  3.0

     negative rho (up, down):  3.126E-01 0.000E+00

     total cpu time spent up to now is      453.8 secs

     total energy              =    -300.93859025 Ry
     estimated scf accuracy    <       0.00000008 Ry

     iteration # 14     ecut=   150.00 Ry     beta= 0.70
     CG style diagonalization
     ethr =  2.20E-10,  avg # of iterations =  4.5

     negative rho (up, down):  3.126E-01 0.000E+00

     total cpu time spent up to now is      459.2 secs

     total energy              =    -300.93859023 Ry
     estimated scf accuracy    <       0.00000030 Ry

     iteration # 15     ecut=   150.00 Ry     beta= 0.70
     CG style diagonalization
     ethr =  2.20E-10,  avg # of iterations =  4.5

     negative rho (up, down):  3.126E-01 0.000E+00

     total cpu time spent up to now is      464.6 secs

     total energy              =    -300.93859025 Ry
     estimated scf accuracy    <       0.00000032 Ry

     iteration # 16     ecut=   150.00 Ry     beta= 0.70
     CG style diagonalization
     ethr =  2.20E-10,  avg # of iterations =  3.6

     negative rho (up, down):  3.126E-01 0.000E+00

     total cpu time spent up to now is      468.7 secs

     total energy              =    -300.93859027 Ry
     estimated scf accuracy    <       0.00000001 Ry

     iteration # 17     ecut=   150.00 Ry     beta= 0.70
     CG style diagonalization
     ethr =  5.21E-11,  avg # of iterations =  3.3

     negative rho (up, down):  3.126E-01 0.000E+00

     total cpu time spent up to now is      472.7 secs

     End of self-consistent calculation

     Number of k-points >= 100: set verbosity='high' to print the bands.

     the Fermi energy is    20.3493 ev

!    total energy              =    -300.93859027 Ry
     estimated scf accuracy    <          2.2E-09 Ry
     smearing contrib. (-TS)   =      -0.00011809 Ry
     internal energy E=F+TS    =    -300.93847218 Ry

     convergence has been achieved in  17 iterations

     negative rho (up, down):  3.126E-01 0.000E+00

     Forces acting on atoms (cartesian axes, Ry/au):

     atom    1 type  1   force =     0.00000000    0.00000000    0.00000000
     atom    2 type  2   force =     0.00000000    0.00000000    0.00000000

     Total force =     0.000000     Total SCF correction =     0.000000


     Computing stress (Cartesian axis) and pressure


     negative rho (up, down):  3.126E-01 0.000E+00
          total   stress  (Ry/bohr**3)                   (kbar)     P=       32.66
   0.00013525   0.00000000   0.00001771           19.90        0.00        2.60
   0.00000000   0.00030724   0.00000000            0.00       45.20        0.00
   0.00001771   0.00000000   0.00022350            2.60        0.00       32.88


     Entering Dynamics;  it =     7   time =  0.00581 pico-seconds

  new lattice vectors (alat unit) :
   0.975203274  -0.000000000   0.001038919
  -0.000000000   0.962784473  -0.000000000
  -0.003740735  -0.000000000   1.159156119
  new unit-cell volume =    196.3262 (a.u.)^3
  new positions in cryst coord
Ti       0.000000000   0.000000000   0.000000000
Ir       0.500000000   0.500000000   0.500000000
  new positions in cart coord (alat unit)
Ti       0.000000000   0.000000000   0.000000000
Ir       0.485731269   0.481392237   0.580097519

     Ekin =     0.00325268 Ry    T =   77.7 K  Etot =     -300.93533759
     new unit-cell volume =    196.32620 a.u.^3 (    29.09254 Ang^3 )
     density =     22.10624 g/cm^3

CELL_PARAMETERS (alat=  5.65028300)
   0.975203274  -0.000000000   0.001038919
  -0.000000000   0.962784473  -0.000000000
  -0.003740735  -0.000000000   1.159156119

ATOMIC_POSITIONS (crystal)
Ti            0.0000000000        0.0000000000        0.0000000000    0   0   0
Ir            0.5000000000        0.5000000000        0.5000000000    0   0   0



     Writing output data file ./TiIr.Im.save/
     NEW-OLD atomic charge density approx. for the potential

     negative rho (up, down):  3.164E-01 0.000E+00
     extrapolated charge   27.23832, renormalised to   27.00000

     total cpu time spent up to now is      476.0 secs

     Self-consistent Calculation

     iteration #  1     ecut=   150.00 Ry     beta= 0.70
     CG style diagonalization
     c_bands:  1 eigenvalues not converged
     c_bands:  1 eigenvalues not converged
     c_bands:  1 eigenvalues not converged
     c_bands:  2 eigenvalues not converged
     c_bands:  2 eigenvalues not converged
     c_bands:  1 eigenvalues not converged
     c_bands:  1 eigenvalues not converged
     c_bands:  1 eigenvalues not converged
     c_bands:  2 eigenvalues not converged
     c_bands:  1 eigenvalues not converged
     c_bands:  2 eigenvalues not converged
     ethr =  1.00E-06,  avg # of iterations =  6.8

     negative rho (up, down):  3.087E-01 0.000E+00

     total cpu time spent up to now is      486.1 secs

     total energy              =    -300.92738327 Ry
     estimated scf accuracy    <       0.00953412 Ry

     iteration #  2     ecut=   150.00 Ry     beta= 0.70
     CG style diagonalization
     ethr =  3.53E-05,  avg # of iterations =  4.8

     negative rho (up, down):  3.117E-01 0.000E+00

     total cpu time spent up to now is      491.8 secs

     total energy              =    -300.93287382 Ry
     estimated scf accuracy    <       0.05068109 Ry

     iteration #  3     ecut=   150.00 Ry     beta= 0.70
     CG style diagonalization
     ethr =  3.53E-05,  avg # of iterations =  3.8

     negative rho (up, down):  3.118E-01 0.000E+00

     total cpu time spent up to now is      496.3 secs

     total energy              =    -300.93808024 Ry
     estimated scf accuracy    <       0.01238277 Ry

     iteration #  4     ecut=   150.00 Ry     beta= 0.70
     CG style diagonalization
     ethr =  3.53E-05,  avg # of iterations =  3.1

     negative rho (up, down):  3.122E-01 0.000E+00

     total cpu time spent up to now is      500.0 secs

     total energy              =    -300.93900370 Ry
     estimated scf accuracy    <       0.00188413 Ry

     iteration #  5     ecut=   150.00 Ry     beta= 0.70
     CG style diagonalization
     ethr =  6.98E-06,  avg # of iterations =  3.1

     negative rho (up, down):  3.124E-01 0.000E+00

     total cpu time spent up to now is      503.7 secs

     total energy              =    -300.93892309 Ry
     estimated scf accuracy    <       0.00108350 Ry

     iteration #  6     ecut=   150.00 Ry     beta= 0.70
     CG style diagonalization
     ethr =  4.01E-06,  avg # of iterations =  3.1

     negative rho (up, down):  3.126E-01 0.000E+00

     total cpu time spent up to now is      507.5 secs

     total energy              =    -300.93881397 Ry
     estimated scf accuracy    <       0.00064135 Ry

     iteration #  7     ecut=   150.00 Ry     beta= 0.70
     CG style diagonalization
     ethr =  2.38E-06,  avg # of iterations =  3.2

     negative rho (up, down):  3.130E-01 0.000E+00

     total cpu time spent up to now is      511.2 secs

     total energy              =    -300.93874038 Ry
     estimated scf accuracy    <       0.00017361 Ry

     iteration #  8     ecut=   150.00 Ry     beta= 0.70
     CG style diagonalization
     ethr =  6.43E-07,  avg # of iterations =  3.8

     negative rho (up, down):  3.129E-01 0.000E+00

     total cpu time spent up to now is      515.8 secs

     total energy              =    -300.93880355 Ry
     estimated scf accuracy    <       0.00002980 Ry

     iteration #  9     ecut=   150.00 Ry     beta= 0.70
     CG style diagonalization
     ethr =  1.10E-07,  avg # of iterations =  3.4

     negative rho (up, down):  3.129E-01 0.000E+00

     total cpu time spent up to now is      519.9 secs

     total energy              =    -300.93881002 Ry
     estimated scf accuracy    <       0.00000756 Ry

     iteration # 10     ecut=   150.00 Ry     beta= 0.70
     CG style diagonalization
     ethr =  2.80E-08,  avg # of iterations =  3.1

     negative rho (up, down):  3.129E-01 0.000E+00

     total cpu time spent up to now is      523.6 secs

     total energy              =    -300.93880901 Ry
     estimated scf accuracy    <       0.00000561 Ry

     iteration # 11     ecut=   150.00 Ry     beta= 0.70
     CG style diagonalization
     ethr =  2.08E-08,  avg # of iterations =  3.2

     negative rho (up, down):  3.128E-01 0.000E+00

     total cpu time spent up to now is      527.4 secs

     total energy              =    -300.93880966 Ry
     estimated scf accuracy    <       0.00000163 Ry

     iteration # 12     ecut=   150.00 Ry     beta= 0.70
     CG style diagonalization
     ethr =  6.03E-09,  avg # of iterations =  3.4

     negative rho (up, down):  3.128E-01 0.000E+00

     total cpu time spent up to now is      531.4 secs

     total energy              =    -300.93880974 Ry
     estimated scf accuracy    <       0.00000256 Ry

     iteration # 13     ecut=   150.00 Ry     beta= 0.70
     CG style diagonalization
     ethr =  6.03E-09,  avg # of iterations =  3.0

     negative rho (up, down):  3.129E-01 0.000E+00

     total cpu time spent up to now is      534.9 secs

     total energy              =    -300.93880922 Ry
     estimated scf accuracy    <       0.00000198 Ry

     iteration # 14     ecut=   150.00 Ry     beta= 0.70
     CG style diagonalization
     ethr =  6.03E-09,  avg # of iterations =  3.1

     negative rho (up, down):  3.129E-01 0.000E+00

     total cpu time spent up to now is      538.7 secs

     total energy              =    -300.93880933 Ry
     estimated scf accuracy    <       0.00000013 Ry

     iteration # 15     ecut=   150.00 Ry     beta= 0.70
     CG style diagonalization
     ethr =  4.80E-10,  avg # of iterations =  3.8

     negative rho (up, down):  3.129E-01 0.000E+00

     total cpu time spent up to now is      543.2 secs

     total energy              =    -300.93880940 Ry
     estimated scf accuracy    <       0.00000005 Ry

     iteration # 16     ecut=   150.00 Ry     beta= 0.70
     CG style diagonalization
     ethr =  2.02E-10,  avg # of iterations =  3.3

     negative rho (up, down):  3.129E-01 0.000E+00

     total cpu time spent up to now is      547.3 secs

     total energy              =    -300.93880940 Ry
     estimated scf accuracy    <       0.00000008 Ry

     iteration # 17     ecut=   150.00 Ry     beta= 0.70
     CG style diagonalization
     ethr =  2.02E-10,  avg # of iterations =  3.0

     negative rho (up, down):  3.129E-01 0.000E+00

     total cpu time spent up to now is      550.8 secs

     total energy              =    -300.93880940 Ry
     estimated scf accuracy    <       0.00000007 Ry

     iteration # 18     ecut=   150.00 Ry     beta= 0.70
     CG style diagonalization
     ethr =  2.02E-10,  avg # of iterations =  3.0

     negative rho (up, down):  3.129E-01 0.000E+00

     total cpu time spent up to now is      554.3 secs

     total energy              =    -300.93880939 Ry
     estimated scf accuracy    <       0.00000002 Ry

     iteration # 19     ecut=   150.00 Ry     beta= 0.70
     CG style diagonalization
     ethr =  7.16E-11,  avg # of iterations =  3.3

     negative rho (up, down):  3.129E-01 0.000E+00

     total cpu time spent up to now is      558.3 secs

     End of self-consistent calculation

     Number of k-points >= 100: set verbosity='high' to print the bands.

     the Fermi energy is    20.1100 ev

!    total energy              =    -300.93880939 Ry
     estimated scf accuracy    <          2.5E-09 Ry
     smearing contrib. (-TS)   =      -0.00011434 Ry
     internal energy E=F+TS    =    -300.93869505 Ry

     convergence has been achieved in  19 iterations

     negative rho (up, down):  3.129E-01 0.000E+00

     Forces acting on atoms (cartesian axes, Ry/au):

     atom    1 type  1   force =     0.00000000    0.00000000    0.00000000
     atom    2 type  2   force =     0.00000000    0.00000000    0.00000000

     Total force =     0.000000     Total SCF correction =     0.000000


     Computing stress (Cartesian axis) and pressure


     negative rho (up, down):  3.129E-01 0.000E+00
          total   stress  (Ry/bohr**3)                   (kbar)     P=        9.10
  -0.00002805   0.00000000   0.00001324           -4.13        0.00        1.95
   0.00000000   0.00017841   0.00000000            0.00       26.24        0.00
   0.00001324   0.00000000   0.00003532            1.95        0.00        5.20


     Entering Dynamics;  it =     8   time =  0.00677 pico-seconds

  new lattice vectors (alat unit) :
   0.975144839  -0.000000000   0.001343882
  -0.000000000   0.964398177  -0.000000000
  -0.003346777  -0.000000000   1.159250517
  new unit-cell volume =    196.6596 (a.u.)^3
  new positions in cryst coord
Ti       0.000000000   0.000000000   0.000000000
Ir       0.500000000   0.500000000   0.500000000
  new positions in cart coord (alat unit)
Ti       0.000000000   0.000000000   0.000000000
Ir       0.485899031   0.482199089   0.580297200

     Ekin =     0.00011384 Ry    T =   67.2 K  Etot =     -300.93869555
     new unit-cell volume =    196.65959 a.u.^3 (    29.14194 Ang^3 )
     density =     22.06877 g/cm^3

CELL_PARAMETERS (alat=  5.65028300)
   0.975144839  -0.000000000   0.001343882
  -0.000000000   0.964398177  -0.000000000
  -0.003346777  -0.000000000   1.159250517

ATOMIC_POSITIONS (crystal)
Ti            0.0000000000        0.0000000000        0.0000000000    0   0   0
Ir            0.5000000000        0.5000000000        0.5000000000    0   0   0



     Writing output data file ./TiIr.Im.save/
     NEW-OLD atomic charge density approx. for the potential

     negative rho (up, down):  3.135E-01 0.000E+00
     extrapolated charge   27.04323, renormalised to   27.00000

     total cpu time spent up to now is      561.6 secs

     Self-consistent Calculation

     iteration #  1     ecut=   150.00 Ry     beta= 0.70
     CG style diagonalization
     ethr =  1.00E-06,  avg # of iterations =  3.6

     negative rho (up, down):  3.122E-01 0.000E+00

     total cpu time spent up to now is      566.9 secs

     total energy              =    -300.93850578 Ry
     estimated scf accuracy    <       0.00028567 Ry

     iteration #  2     ecut=   150.00 Ry     beta= 0.70
     CG style diagonalization
     ethr =  1.06E-06,  avg # of iterations =  4.8

     negative rho (up, down):  3.127E-01 0.000E+00

     total cpu time spent up to now is      572.6 secs

     total energy              =    -300.93877651 Ry
     estimated scf accuracy    <       0.00085750 Ry

     iteration #  3     ecut=   150.00 Ry     beta= 0.70
     CG style diagonalization
     ethr =  1.06E-06,  avg # of iterations =  3.6

     negative rho (up, down):  3.127E-01 0.000E+00

     total cpu time spent up to now is      576.8 secs

     total energy              =    -300.93885432 Ry
     estimated scf accuracy    <       0.00028239 Ry

     iteration #  4     ecut=   150.00 Ry     beta= 0.70
     CG style diagonalization
     ethr =  1.05E-06,  avg # of iterations =  3.1

     negative rho (up, down):  3.128E-01 0.000E+00

     total cpu time spent up to now is      580.4 secs

     total energy              =    -300.93886620 Ry
     estimated scf accuracy    <       0.00005964 Ry

     iteration #  5     ecut=   150.00 Ry     beta= 0.70
     CG style diagonalization
     ethr =  2.21E-07,  avg # of iterations =  3.1

     negative rho (up, down):  3.129E-01 0.000E+00

     total cpu time spent up to now is      584.1 secs

     total energy              =    -300.93885479 Ry
     estimated scf accuracy    <       0.00002743 Ry

     iteration #  6     ecut=   150.00 Ry     beta= 0.70
     CG style diagonalization
     ethr =  1.02E-07,  avg # of iterations =  3.5

     negative rho (up, down):  3.129E-01 0.000E+00

     total cpu time spent up to now is      588.3 secs

     total energy              =    -300.93886113 Ry
     estimated scf accuracy    <       0.00000061 Ry

     iteration #  7     ecut=   150.00 Ry     beta= 0.70
     CG style diagonalization
     ethr =  2.26E-09,  avg # of iterations =  4.0

     negative rho (up, down):  3.129E-01 0.000E+00

     total cpu time spent up to now is      593.2 secs

     total energy              =    -300.93886165 Ry
     estimated scf accuracy    <       0.00000007 Ry

     iteration #  8     ecut=   150.00 Ry     beta= 0.70
     CG style diagonalization
     ethr =  2.54E-10,  avg # of iterations =  3.5

     negative rho (up, down):  3.129E-01 0.000E+00

     total cpu time spent up to now is      597.5 secs

     total energy              =    -300.93886166 Ry
     estimated scf accuracy    <       0.00000004 Ry

     iteration #  9     ecut=   150.00 Ry     beta= 0.70
     CG style diagonalization
     ethr =  1.31E-10,  avg # of iterations =  3.2

     negative rho (up, down):  3.129E-01 0.000E+00

     total cpu time spent up to now is      601.2 secs

     End of self-consistent calculation

     Number of k-points >= 100: set verbosity='high' to print the bands.

     the Fermi energy is    20.0731 ev

!    total energy              =    -300.93886167 Ry
     estimated scf accuracy    <          2.8E-09 Ry
     smearing contrib. (-TS)   =      -0.00011765 Ry
     internal energy E=F+TS    =    -300.93874401 Ry

     convergence has been achieved in   9 iterations

     negative rho (up, down):  3.129E-01 0.000E+00

     Forces acting on atoms (cartesian axes, Ry/au):

     atom    1 type  1   force =     0.00000000    0.00000000    0.00000000
     atom    2 type  2   force =     0.00000000    0.00000000    0.00000000

     Total force =     0.000000     Total SCF correction =     0.000000


     Computing stress (Cartesian axis) and pressure


     negative rho (up, down):  3.129E-01 0.000E+00
          total   stress  (Ry/bohr**3)                   (kbar)     P=        4.46
  -0.00004835   0.00000000   0.00000912           -7.11        0.00        1.34
   0.00000000   0.00012598   0.00000000            0.00       18.53        0.00
   0.00000912   0.00000000   0.00001336            1.34        0.00        1.97


     Entering Dynamics;  it =     9   time =  0.00774 pico-seconds

  new lattice vectors (alat unit) :
   0.974985249  -0.000000000   0.001667513
  -0.000000000   0.966283233  -0.000000000
  -0.002930290  -0.000000000   1.159383278
  new unit-cell volume =    197.0344 (a.u.)^3
  new positions in cryst coord
Ti       0.000000000   0.000000000   0.000000000
Ir       0.500000000   0.500000000   0.500000000
  new positions in cart coord (alat unit)
Ti       0.000000000   0.000000000   0.000000000
Ir       0.486027479   0.483141617   0.580525396

     Ekin =     0.00016005 Ry    T =   59.5 K  Etot =     -300.93870162
     new unit-cell volume =    197.03437 a.u.^3 (    29.19748 Ang^3 )
     density =     22.02679 g/cm^3

CELL_PARAMETERS (alat=  5.65028300)
   0.974985249  -0.000000000   0.001667513
  -0.000000000   0.966283233  -0.000000000
  -0.002930290  -0.000000000   1.159383278

ATOMIC_POSITIONS (crystal)
Ti            0.0000000000        0.0000000000        0.0000000000    0   0   0
Ir            0.5000000000        0.5000000000        0.5000000000    0   0   0



     Writing output data file ./TiIr.Im.save/
     NEW-OLD atomic charge density approx. for the potential

     negative rho (up, down):  3.136E-01 0.000E+00
     extrapolated charge   27.04850, renormalised to   27.00000

     total cpu time spent up to now is      604.4 secs

     Self-consistent Calculation

     iteration #  1     ecut=   150.00 Ry     beta= 0.70
     CG style diagonalization
     ethr =  1.00E-06,  avg # of iterations =  3.8

     negative rho (up, down):  3.121E-01 0.000E+00

     total cpu time spent up to now is      610.0 secs

     total energy              =    -300.93844360 Ry
     estimated scf accuracy    <       0.00037340 Ry

     iteration #  2     ecut=   150.00 Ry     beta= 0.70
     CG style diagonalization
     ethr =  1.38E-06,  avg # of iterations =  4.8

     negative rho (up, down):  3.127E-01 0.000E+00

     total cpu time spent up to now is      615.8 secs

     total energy              =    -300.93876193 Ry
     estimated scf accuracy    <       0.00129118 Ry

     iteration #  3     ecut=   150.00 Ry     beta= 0.70
     CG style diagonalization
     ethr =  1.38E-06,  avg # of iterations =  3.6

     negative rho (up, down):  3.127E-01 0.000E+00

     total cpu time spent up to now is      620.1 secs

     total energy              =    -300.93888661 Ry
     estimated scf accuracy    <       0.00041193 Ry

     iteration #  4     ecut=   150.00 Ry     beta= 0.70
     CG style diagonalization
     ethr =  1.38E-06,  avg # of iterations =  3.1

     negative rho (up, down):  3.128E-01 0.000E+00

     total cpu time spent up to now is      623.8 secs

     total energy              =    -300.93890744 Ry
     estimated scf accuracy    <       0.00007586 Ry

     iteration #  5     ecut=   150.00 Ry     beta= 0.70
     CG style diagonalization
     ethr =  2.81E-07,  avg # of iterations =  3.1

     negative rho (up, down):  3.129E-01 0.000E+00

     total cpu time spent up to now is      627.5 secs

     total energy              =    -300.93889433 Ry
     estimated scf accuracy    <       0.00003397 Ry

     iteration #  6     ecut=   150.00 Ry     beta= 0.70
     CG style diagonalization
     ethr =  1.26E-07,  avg # of iterations =  3.5

     negative rho (up, down):  3.129E-01 0.000E+00

     total cpu time spent up to now is      631.7 secs

     total energy              =    -300.93890179 Ry
     estimated scf accuracy    <       0.00000098 Ry

     iteration #  7     ecut=   150.00 Ry     beta= 0.70
     CG style diagonalization
     ethr =  3.62E-09,  avg # of iterations =  3.9

     negative rho (up, down):  3.129E-01 0.000E+00

     total cpu time spent up to now is      636.6 secs

     total energy              =    -300.93890244 Ry
     estimated scf accuracy    <       0.00000010 Ry

     iteration #  8     ecut=   150.00 Ry     beta= 0.70
     CG style diagonalization
     ethr =  3.75E-10,  avg # of iterations =  3.7

     negative rho (up, down):  3.129E-01 0.000E+00

     total cpu time spent up to now is      641.1 secs

     total energy              =    -300.93890246 Ry
     estimated scf accuracy    <       0.00000004 Ry

     iteration #  9     ecut=   150.00 Ry     beta= 0.70
     CG style diagonalization
     ethr =  1.44E-10,  avg # of iterations =  3.3

     negative rho (up, down):  3.129E-01 0.000E+00

     total cpu time spent up to now is      645.0 secs

     End of self-consistent calculation

     Number of k-points >= 100: set verbosity='high' to print the bands.

     the Fermi energy is    20.0312 ev

!    total energy              =    -300.93890246 Ry
     estimated scf accuracy    <          5.8E-09 Ry
     smearing contrib. (-TS)   =      -0.00012167 Ry
     internal energy E=F+TS    =    -300.93878079 Ry

     convergence has been achieved in   9 iterations

     negative rho (up, down):  3.129E-01 0.000E+00

     Forces acting on atoms (cartesian axes, Ry/au):

[...]
Ir            0.5000000000        0.5000000000        0.5000000000    0   0   0
End final coordinates



     Writing output data file ./TiIr.Im.save/

check_writable_dir fail: insufficient permissions to access './TiIr.Im.save/'

check_writable_dir fail: insufficient permissions to access './TiIr.Im.save/'
forrtl: Permission denied
forrtl: severe (9): permission to access file denied, unit 4, file /share/data/pkveton/QE/TiIr/Im/vc-relax/./TiIr.Im.save/wfc518.dat
Image              PC                Routine            Line        Source             
pw.x               0000000000E1164B  Unknown               Unknown  Unknown
pw.x               0000000000E30730  Unknown               Unknown  Unknown
pw.x               000000000095516A  io_base_mp_write_         101  io_base.f90
pw.x               000000000057E054  pw_restart_new_mp         842  pw_restart_new.f90
pw.x               0000000000575614  punch_                    108  punch.f90
pw.x               00000000005B39A9  run_pwscf_                284  run_pwscf.f90
pw.x               000000000040DBDB  MAIN__                    106  pwscf.f90
pw.x               000000000040DA22  Unknown               Unknown  Unknown
libc-2.24.so       00007F63814042E1  __libc_start_main     Unknown  Unknown
pw.x               000000000040D8EA  Unknown               Unknown  Unknown

===================================================================================
=   BAD TERMINATION OF ONE OF YOUR APPLICATION PROCESSES
=   RANK 52 PID 9480 RUNNING AT pleiades13.uwp.edu
=   EXIT STATUS: 9
===================================================================================

===================================================================================
=   BAD TERMINATION OF ONE OF YOUR APPLICATION PROCESSES
=   RANK 53 PID 9481 RUNNING AT pleiades13.uwp.edu
=   KILLED BY SIGNAL: 9 (Killed)
===================================================================================

===================================================================================
=   BAD TERMINATION OF ONE OF YOUR APPLICATION PROCESSES
=   RANK 54 PID 9482 RUNNING AT pleiades13.uwp.edu
=   KILLED BY SIGNAL: 9 (Killed)
===================================================================================

===================================================================================
=   BAD TERMINATION OF ONE OF YOUR APPLICATION PROCESSES
=   RANK 55 PID 9483 RUNNING AT pleiades13.uwp.edu
=   KILLED BY SIGNAL: 9 (Killed)
===================================================================================

===================================================================================
=   BAD TERMINATION OF ONE OF YOUR APPLICATION PROCESSES
=   RANK 0 PID 10772 RUNNING AT pleiades01.uwp.edu
=   KILLED BY SIGNAL: 9 (Killed)
===================================================================================

===================================================================================
=   BAD TERMINATION OF ONE OF YOUR APPLICATION PROCESSES
=   RANK 1 PID 10773 RUNNING AT pleiades01.uwp.edu
=   KILLED BY SIGNAL: 9 (Killed)
===================================================================================

===================================================================================
=   BAD TERMINATION OF ONE OF YOUR APPLICATION PROCESSES
=   RANK 2 PID 10774 RUNNING AT pleiades01.uwp.edu
=   KILLED BY SIGNAL: 9 (Killed)
===================================================================================

===================================================================================
=   BAD TERMINATION OF ONE OF YOUR APPLICATION PROCESSES
=   RANK 3 PID 10775 RUNNING AT pleiades01.uwp.edu
=   KILLED BY SIGNAL: 9 (Killed)
===================================================================================

===================================================================================
=   BAD TERMINATION OF ONE OF YOUR APPLICATION PROCESSES
=   RANK 4 PID 31771 RUNNING AT pleiades02.uwp.edu
=   KILLED BY SIGNAL: 9 (Killed)
===================================================================================

===================================================================================
=   BAD TERMINATION OF ONE OF YOUR APPLICATION PROCESSES
=   RANK 5 PID 31772 RUNNING AT pleiades02.uwp.edu
=   KILLED BY SIGNAL: 9 (Killed)
===================================================================================

===================================================================================
=   BAD TERMINATION OF ONE OF YOUR APPLICATION PROCESSES
=   RANK 6 PID 31773 RUNNING AT pleiades02.uwp.edu
=   KILLED BY SIGNAL: 9 (Killed)
===================================================================================

===================================================================================
=   BAD TERMINATION OF ONE OF YOUR APPLICATION PROCESSES
=   RANK 7 PID 31774 RUNNING AT pleiades02.uwp.edu
=   KILLED BY SIGNAL: 9 (Killed)
===================================================================================

===================================================================================
=   BAD TERMINATION OF ONE OF YOUR APPLICATION PROCESSES
=   RANK 56 PID 14703 RUNNING AT pleiades15.uwp.edu
=   KILLED BY SIGNAL: 9 (Killed)
===================================================================================

===================================================================================
=   BAD TERMINATION OF ONE OF YOUR APPLICATION PROCESSES
=   RANK 57 PID 14704 RUNNING AT pleiades15.uwp.edu
=   KILLED BY SIGNAL: 9 (Killed)
===================================================================================

===================================================================================
=   BAD TERMINATION OF ONE OF YOUR APPLICATION PROCESSES
=   RANK 58 PID 14705 RUNNING AT pleiades15.uwp.edu
=   KILLED BY SIGNAL: 9 (Killed)
===================================================================================

===================================================================================
=   BAD TERMINATION OF ONE OF YOUR APPLICATION PROCESSES
=   RANK 59 PID 14706 RUNNING AT pleiades15.uwp.edu
=   KILLED BY SIGNAL: 9 (Killed)
===================================================================================

===================================================================================
=   BAD TERMINATION OF ONE OF YOUR APPLICATION PROCESSES
=   RANK 8 PID 23936 RUNNING AT pleiades03.uwp.edu
=   KILLED BY SIGNAL: 9 (Killed)
===================================================================================

===================================================================================
=   BAD TERMINATION OF ONE OF YOUR APPLICATION PROCESSES
=   RANK 9 PID 23937 RUNNING AT pleiades03.uwp.edu
=   KILLED BY SIGNAL: 9 (Killed)
===================================================================================

===================================================================================
=   BAD TERMINATION OF ONE OF YOUR APPLICATION PROCESSES
=   RANK 10 PID 23938 RUNNING AT pleiades03.uwp.edu
=   KILLED BY SIGNAL: 9 (Killed)
===================================================================================

===================================================================================
=   BAD TERMINATION OF ONE OF YOUR APPLICATION PROCESSES
=   RANK 11 PID 23939 RUNNING AT pleiades03.uwp.edu
=   KILLED BY SIGNAL: 9 (Killed)
===================================================================================

===================================================================================
=   BAD TERMINATION OF ONE OF YOUR APPLICATION PROCESSES
=   RANK 48 PID 22532 RUNNING AT pleiades14.uwp.edu
=   KILLED BY SIGNAL: 9 (Killed)
===================================================================================

===================================================================================
=   BAD TERMINATION OF ONE OF YOUR APPLICATION PROCESSES
=   RANK 49 PID 22533 RUNNING AT pleiades14.uwp.edu
=   KILLED BY SIGNAL: 9 (Killed)
===================================================================================

===================================================================================
=   BAD TERMINATION OF ONE OF YOUR APPLICATION PROCESSES
=   RANK 50 PID 22534 RUNNING AT pleiades14.uwp.edu
=   KILLED BY SIGNAL: 9 (Killed)
===================================================================================

===================================================================================
=   BAD TERMINATION OF ONE OF YOUR APPLICATION PROCESSES
=   RANK 51 PID 22535 RUNNING AT pleiades14.uwp.edu
=   KILLED BY SIGNAL: 9 (Killed)
===================================================================================

===================================================================================
=   BAD TERMINATION OF ONE OF YOUR APPLICATION PROCESSES
=   RANK 44 PID 4874 RUNNING AT pleiades12.uwp.edu
=   KILLED BY SIGNAL: 9 (Killed)
===================================================================================

===================================================================================
=   BAD TERMINATION OF ONE OF YOUR APPLICATION PROCESSES
=   RANK 45 PID 4875 RUNNING AT pleiades12.uwp.edu
=   KILLED BY SIGNAL: 9 (Killed)
===================================================================================

===================================================================================
=   BAD TERMINATION OF ONE OF YOUR APPLICATION PROCESSES
=   RANK 46 PID 4876 RUNNING AT pleiades12.uwp.edu
=   KILLED BY SIGNAL: 9 (Killed)
===================================================================================

===================================================================================
=   BAD TERMINATION OF ONE OF YOUR APPLICATION PROCESSES
=   RANK 47 PID 4877 RUNNING AT pleiades12.uwp.edu
=   KILLED BY SIGNAL: 9 (Killed)
===================================================================================

===================================================================================
=   BAD TERMINATION OF ONE OF YOUR APPLICATION PROCESSES
=   RANK 16 PID 31488 RUNNING AT pleiades05.uwp.edu
=   KILLED BY SIGNAL: 9 (Killed)
===================================================================================

===================================================================================
=   BAD TERMINATION OF ONE OF YOUR APPLICATION PROCESSES
=   RANK 17 PID 31489 RUNNING AT pleiades05.uwp.edu
=   KILLED BY SIGNAL: 9 (Killed)
===================================================================================

===================================================================================
=   BAD TERMINATION OF ONE OF YOUR APPLICATION PROCESSES
=   RANK 18 PID 31490 RUNNING AT pleiades05.uwp.edu
=   KILLED BY SIGNAL: 9 (Killed)
===================================================================================

===================================================================================
=   BAD TERMINATION OF ONE OF YOUR APPLICATION PROCESSES
=   RANK 19 PID 31491 RUNNING AT pleiades05.uwp.edu
=   KILLED BY SIGNAL: 9 (Killed)
===================================================================================

===================================================================================
=   BAD TERMINATION OF ONE OF YOUR APPLICATION PROCESSES
=   RANK 32 PID 6906 RUNNING AT pleiades09.uwp.edu
=   KILLED BY SIGNAL: 9 (Killed)
===================================================================================

===================================================================================
=   BAD TERMINATION OF ONE OF YOUR APPLICATION PROCESSES
=   RANK 33 PID 6907 RUNNING AT pleiades09.uwp.edu
=   KILLED BY SIGNAL: 9 (Killed)
===================================================================================

===================================================================================
=   BAD TERMINATION OF ONE OF YOUR APPLICATION PROCESSES
=   RANK 34 PID 6908 RUNNING AT pleiades09.uwp.edu
=   KILLED BY SIGNAL: 9 (Killed)
===================================================================================

===================================================================================
=   BAD TERMINATION OF ONE OF YOUR APPLICATION PROCESSES
=   RANK 35 PID 6909 RUNNING AT pleiades09.uwp.edu
=   KILLED BY SIGNAL: 9 (Killed)
===================================================================================

===================================================================================
=   BAD TERMINATION OF ONE OF YOUR APPLICATION PROCESSES
=   RANK 20 PID 5985 RUNNING AT pleiades06.uwp.edu
=   KILLED BY SIGNAL: 9 (Killed)
===================================================================================

===================================================================================
=   BAD TERMINATION OF ONE OF YOUR APPLICATION PROCESSES
=   RANK 21 PID 5986 RUNNING AT pleiades06.uwp.edu
=   KILLED BY SIGNAL: 9 (Killed)
===================================================================================

===================================================================================
=   BAD TERMINATION OF ONE OF YOUR APPLICATION PROCESSES
=   RANK 22 PID 5987 RUNNING AT pleiades06.uwp.edu
=   KILLED BY SIGNAL: 9 (Killed)
===================================================================================

===================================================================================
=   BAD TERMINATION OF ONE OF YOUR APPLICATION PROCESSES
=   RANK 23 PID 5988 RUNNING AT pleiades06.uwp.edu
=   KILLED BY SIGNAL: 9 (Killed)
===================================================================================

===================================================================================
=   BAD TERMINATION OF ONE OF YOUR APPLICATION PROCESSES
=   RANK 24 PID 30244 RUNNING AT pleiades07.uwp.edu
=   KILLED BY SIGNAL: 9 (Killed)
===================================================================================

===================================================================================
=   BAD TERMINATION OF ONE OF YOUR APPLICATION PROCESSES
=   RANK 25 PID 30245 RUNNING AT pleiades07.uwp.edu
=   KILLED BY SIGNAL: 9 (Killed)
===================================================================================

===================================================================================
=   BAD TERMINATION OF ONE OF YOUR APPLICATION PROCESSES
=   RANK 26 PID 30246 RUNNING AT pleiades07.uwp.edu
=   KILLED BY SIGNAL: 9 (Killed)
===================================================================================

===================================================================================
=   BAD TERMINATION OF ONE OF YOUR APPLICATION PROCESSES
=   RANK 27 PID 30247 RUNNING AT pleiades07.uwp.edu
=   KILLED BY SIGNAL: 9 (Killed)
===================================================================================

===================================================================================
=   BAD TERMINATION OF ONE OF YOUR APPLICATION PROCESSES
=   RANK 40 PID 32228 RUNNING AT pleiades11.uwp.edu
=   KILLED BY SIGNAL: 9 (Killed)
===================================================================================

===================================================================================
=   BAD TERMINATION OF ONE OF YOUR APPLICATION PROCESSES
=   RANK 41 PID 32229 RUNNING AT pleiades11.uwp.edu
=   KILLED BY SIGNAL: 9 (Killed)
===================================================================================

===================================================================================
=   BAD TERMINATION OF ONE OF YOUR APPLICATION PROCESSES
=   RANK 42 PID 32230 RUNNING AT pleiades11.uwp.edu
=   KILLED BY SIGNAL: 9 (Killed)
===================================================================================

===================================================================================
=   BAD TERMINATION OF ONE OF YOUR APPLICATION PROCESSES
=   RANK 43 PID 32231 RUNNING AT pleiades11.uwp.edu
=   KILLED BY SIGNAL: 9 (Killed)
===================================================================================

===================================================================================
=   BAD TERMINATION OF ONE OF YOUR APPLICATION PROCESSES
=   RANK 36 PID 25723 RUNNING AT pleiades10.uwp.edu
=   KILLED BY SIGNAL: 9 (Killed)
===================================================================================

===================================================================================
=   BAD TERMINATION OF ONE OF YOUR APPLICATION PROCESSES
=   RANK 37 PID 25724 RUNNING AT pleiades10.uwp.edu
=   KILLED BY SIGNAL: 9 (Killed)
===================================================================================

===================================================================================
=   BAD TERMINATION OF ONE OF YOUR APPLICATION PROCESSES
=   RANK 38 PID 25725 RUNNING AT pleiades10.uwp.edu
=   KILLED BY SIGNAL: 9 (Killed)
===================================================================================

===================================================================================
=   BAD TERMINATION OF ONE OF YOUR APPLICATION PROCESSES
=   RANK 39 PID 25726 RUNNING AT pleiades10.uwp.edu
=   KILLED BY SIGNAL: 9 (Killed)
===================================================================================

===================================================================================
=   BAD TERMINATION OF ONE OF YOUR APPLICATION PROCESSES
=   RANK 28 PID 13408 RUNNING AT pleiades08.uwp.edu
=   KILLED BY SIGNAL: 9 (Killed)
===================================================================================

===================================================================================
=   BAD TERMINATION OF ONE OF YOUR APPLICATION PROCESSES
=   RANK 29 PID 13409 RUNNING AT pleiades08.uwp.edu
=   KILLED BY SIGNAL: 9 (Killed)
===================================================================================

===================================================================================
=   BAD TERMINATION OF ONE OF YOUR APPLICATION PROCESSES
=   RANK 30 PID 13410 RUNNING AT pleiades08.uwp.edu
=   KILLED BY SIGNAL: 9 (Killed)
===================================================================================

===================================================================================
=   BAD TERMINATION OF ONE OF YOUR APPLICATION PROCESSES
=   RANK 31 PID 13411 RUNNING AT pleiades08.uwp.edu
=   KILLED BY SIGNAL: 9 (Killed)
===================================================================================

===================================================================================
=   BAD TERMINATION OF ONE OF YOUR APPLICATION PROCESSES
=   RANK 12 PID 15584 RUNNING AT pleiades04.uwp.edu
=   KILLED BY SIGNAL: 9 (Killed)
===================================================================================

===================================================================================
=   BAD TERMINATION OF ONE OF YOUR APPLICATION PROCESSES
=   RANK 13 PID 15585 RUNNING AT pleiades04.uwp.edu
=   KILLED BY SIGNAL: 9 (Killed)
===================================================================================

===================================================================================
=   BAD TERMINATION OF ONE OF YOUR APPLICATION PROCESSES
=   RANK 14 PID 15586 RUNNING AT pleiades04.uwp.edu
=   KILLED BY SIGNAL: 9 (Killed)
===================================================================================

===================================================================================
=   BAD TERMINATION OF ONE OF YOUR APPLICATION PROCESSES
=   RANK 15 PID 15587 RUNNING AT pleiades04.uwp.edu
=   KILLED BY SIGNAL: 9 (Killed)
===================================================================================
