
     Program PWSCF v.6.7MaX starts on 21Apr2023 at  8:38:18 

     This program is part of the open-source Quantum ESPRESSO suite
     for quantum simulation of materials; please cite
         "P. Giannozzi et al., J. Phys.:Condens. Matter 21 395502 (2009);
         "P. Giannozzi et al., J. Phys.:Condens. Matter 29 465901 (2017);
          URL http://www.quantum-espresso.org", 
     in publications or presentations arising from this work. More details at
     http://www.quantum-espresso.org/quote

     Parallel version (MPI), running on    60 processors

     MPI processes distributed on    15 nodes
     K-points division:     npool     =      15
     R & G space division:  proc/nbgrp/npool/nimage =       4
     Reading input from TiIr.P4mmm.vc-relax.in

     Current dimensions of program PWSCF are:
     Max number of different atomic species (ntypx) = 10
     Max number of k-points (npk) =  40000
     Max angular momentum in pseudopotentials (lmaxx) =  3

check_writable_dir fail: insufficient permissions to access './'

check_writable_dir fail: insufficient permissions to access './'

check_writable_dir fail: insufficient permissions to access './'

check_writable_dir fail: insufficient permissions to access './'

check_writable_dir fail: insufficient permissions to access './'

check_writable_dir fail: insufficient permissions to access './'

check_writable_dir fail: insufficient permissions to access './'

check_writable_dir fail: insufficient permissions to access './'

     Subspace diagonalization in iterative solution of the eigenvalue problem:
     a serial algorithm will be used

 
     Parallelization info
     --------------------
     sticks:   dense  smooth     PW     G-vecs:    dense   smooth      PW
     Min         382     382    109                13179    13179    2013
     Max         384     384    110                13180    13180    2015
     Sum        1533    1533    437                52719    52719    8055
 

     Title: 
     variable cell relaxation for 2-atom Im-3m                                  


     bravais-lattice index     =            6
     lattice parameter (alat)  =       5.6503  a.u.
     unit-cell volume          =     212.6663 (a.u.)^3
     number of atoms/cell      =            2
     number of atomic types    =            2
     number of electrons       =        27.00
     number of Kohn-Sham states=           17
     kinetic-energy cutoff     =     150.0000  Ry
     charge density cutoff     =     600.0000  Ry
     scf convergence threshold =      1.0E-08
     mixing beta               =       0.7000
     number of iterations used =            8  plain     mixing
     energy convergence thresh.=      7.3E-05
     force convergence thresh. =      1.9E-04
     press convergence thresh. =      1.0E+00
     Exchange-correlation= SLA  PW   PSX  PSC
                           (   1   4  10   8   0   0   0)
     nstep                     =          150


     celldm(1)=   5.650283  celldm(2)=   0.000000  celldm(3)=   1.178930
     celldm(4)=   0.000000  celldm(5)=   0.000000  celldm(6)=   0.000000

     crystal axes: (cart. coord. in units of alat)
               a(1) = (   1.000000   0.000000   0.000000 )  
               a(2) = (   0.000000   1.000000   0.000000 )  
               a(3) = (   0.000000   0.000000   1.178930 )  

     reciprocal axes: (cart. coord. in units 2 pi/alat)
               b(1) = (  1.000000  0.000000  0.000000 )  
               b(2) = (  0.000000  1.000000  0.000000 )  
               b(3) = (  0.000000  0.000000  0.848227 )  


     PseudoPot. # 1 for Ti read from file:
     /share/pseudo/ti_pbesol_v1.4.uspp.F.UPF
     MD5 check sum: 193cf2c0c3c6a4da613d69453fa7e3e9
     Pseudo is Ultrasoft + core correction, Zval = 12.0
     Generated by new atomic code, or converted to UPF format
     Using radial grid of  851 points,  6 beta functions with: 
                l(1) =   0
                l(2) =   0
                l(3) =   1
                l(4) =   1
                l(5) =   2
                l(6) =   2
     Q(r) pseudized with  6 coefficients,  rinner =    1.000   1.000   1.000
                                                       1.000   1.000

     PseudoPot. # 2 for Ir read from file:
     /share/pseudo/ir_pbesol_v1.2.uspp.F.UPF
     MD5 check sum: 965d8bb5733ec2587acb56a50491f36d
     Pseudo is Ultrasoft + core correction, Zval = 15.0
     Generated by new atomic code, or converted to UPF format
     Using radial grid of  983 points,  7 beta functions with: 
                l(1) =   0
                l(2) =   0
                l(3) =   1
                l(4) =   1
                l(5) =   1
                l(6) =   2
                l(7) =   2
     Q(r) pseudized with  8 coefficients,  rinner =    1.400   1.400   1.400
                                                       1.400   1.400

     atomic species   valence    mass     pseudopotential
        Ti            12.00   195.08000     Ti( 1.00)
        Ir            15.00   192.22000     Ir( 1.00)

      cell mass =   0.00100 AMU/(a.u.)^2 

     16 Sym. Ops., with inversion, found



   Cartesian axes

     site n.     atom                  positions (alat units)
         1           Ti  tau(   1) = (   0.0000000   0.0000000   0.0000000  )
         2           Ir  tau(   2) = (   0.5000000   0.5000000   0.5894650  )

     number of k points=   196  Gaussian smearing, width (Ry)=  0.0030

     Number of k-points >= 100: set verbosity='high' to print them.

     Dense  grid:    52719 G-vectors     FFT dimensions: (  45,  45,  54)

     Estimated max dynamical RAM per process >      29.30 MB

     Estimated total dynamical RAM >       1.72 GB

     Initial potential from superposition of free atoms

     starting charge   25.49993, renormalised to   27.00000

     negative rho (up, down):  3.817E-01 0.000E+00
     Starting wfcs are   22 randomized atomic wfcs

     total cpu time spent up to now is        2.5 secs

     Self-consistent Calculation

     iteration #  1     ecut=   150.00 Ry     beta= 0.70
     CG style diagonalization
     ethr =  1.00E-02,  avg # of iterations =  2.6

     negative rho (up, down):  2.395E-01 0.000E+00

     total cpu time spent up to now is        4.0 secs

     total energy              =    -293.14766361 Ry
     estimated scf accuracy    <      11.10777494 Ry

     iteration #  2     ecut=   150.00 Ry     beta= 0.70
     CG style diagonalization
     ethr =  1.00E-02,  avg # of iterations =  7.4

     negative rho (up, down):  1.750E-01 0.000E+00

     total cpu time spent up to now is        7.4 secs

     total energy              =    -298.63565837 Ry
     estimated scf accuracy    <      34.08404317 Ry

     iteration #  3     ecut=   150.00 Ry     beta= 0.70
     CG style diagonalization
     ethr =  1.00E-02,  avg # of iterations =  4.2

     negative rho (up, down):  2.374E-01 0.000E+00

     total cpu time spent up to now is        9.3 secs

     total energy              =    -301.20466241 Ry
     estimated scf accuracy    <       4.60966185 Ry

     iteration #  4     ecut=   150.00 Ry     beta= 0.70
     CG style diagonalization
     ethr =  1.00E-02,  avg # of iterations =  3.1

     negative rho (up, down):  3.654E-01 0.000E+00

     total cpu time spent up to now is       10.7 secs

     total energy              =    -299.97446884 Ry
     estimated scf accuracy    <       2.58657890 Ry

     iteration #  5     ecut=   150.00 Ry     beta= 0.70
     CG style diagonalization
     ethr =  9.58E-03,  avg # of iterations =  4.1

     negative rho (up, down):  2.900E-01 0.000E+00

     total cpu time spent up to now is       12.7 secs

     total energy              =    -299.36491888 Ry
     estimated scf accuracy    <      11.90689011 Ry

     iteration #  6     ecut=   150.00 Ry     beta= 0.70
     CG style diagonalization
     ethr =  9.58E-03,  avg # of iterations =  3.6

     negative rho (up, down):  2.838E-01 0.000E+00

     total cpu time spent up to now is       14.3 secs

     total energy              =    -300.95339873 Ry
     estimated scf accuracy    <       0.27089592 Ry

     iteration #  7     ecut=   150.00 Ry     beta= 0.70
     CG style diagonalization
     ethr =  1.00E-03,  avg # of iterations =  3.8

     negative rho (up, down):  3.054E-01 0.000E+00

     total cpu time spent up to now is       16.1 secs

     total energy              =    -300.93635529 Ry
     estimated scf accuracy    <       0.74905266 Ry

     iteration #  8     ecut=   150.00 Ry     beta= 0.70
     CG style diagonalization
     ethr =  1.00E-03,  avg # of iterations =  3.2

     negative rho (up, down):  3.054E-01 0.000E+00

     total cpu time spent up to now is       17.6 secs

     total energy              =    -300.96023796 Ry
     estimated scf accuracy    <       0.27707156 Ry

     iteration #  9     ecut=   150.00 Ry     beta= 0.70
     CG style diagonalization
     ethr =  1.00E-03,  avg # of iterations =  3.0

     negative rho (up, down):  3.031E-01 0.000E+00

     total cpu time spent up to now is       19.0 secs

     total energy              =    -300.97322696 Ry
     estimated scf accuracy    <       0.25803853 Ry

     iteration # 10     ecut=   150.00 Ry     beta= 0.70
     CG style diagonalization
     ethr =  9.56E-04,  avg # of iterations =  3.0

     negative rho (up, down):  3.072E-01 0.000E+00

     total cpu time spent up to now is       20.5 secs

     total energy              =    -300.94319814 Ry
     estimated scf accuracy    <       0.30830764 Ry

     iteration # 11     ecut=   150.00 Ry     beta= 0.70
     CG style diagonalization
     ethr =  9.56E-04,  avg # of iterations =  3.0

     negative rho (up, down):  3.149E-01 0.000E+00

     total cpu time spent up to now is       21.9 secs

     total energy              =    -300.92108113 Ry
     estimated scf accuracy    <       0.14365794 Ry

     iteration # 12     ecut=   150.00 Ry     beta= 0.70
     CG style diagonalization
     ethr =  5.32E-04,  avg # of iterations =  3.1

     negative rho (up, down):  3.154E-01 0.000E+00

     total cpu time spent up to now is       23.5 secs

     total energy              =    -300.93082336 Ry
     estimated scf accuracy    <       0.02285831 Ry

     iteration # 13     ecut=   150.00 Ry     beta= 0.70
     CG style diagonalization
     ethr =  8.47E-05,  avg # of iterations =  3.6

     negative rho (up, down):  3.188E-01 0.000E+00

     total cpu time spent up to now is       25.4 secs

     total energy              =    -300.96592580 Ry
     estimated scf accuracy    <       0.03743922 Ry

     iteration # 14     ecut=   150.00 Ry     beta= 0.70
     CG style diagonalization
     ethr =  8.47E-05,  avg # of iterations =  4.3

     negative rho (up, down):  3.146E-01 0.000E+00

     total cpu time spent up to now is       27.5 secs

     total energy              =    -300.84822068 Ry
     estimated scf accuracy    <       0.93090226 Ry

     iteration # 15     ecut=   150.00 Ry     beta= 0.70
     CG style diagonalization
     ethr =  8.47E-05,  avg # of iterations =  4.1

     negative rho (up, down):  3.169E-01 0.000E+00

     total cpu time spent up to now is       29.4 secs

     total energy              =    -300.93501565 Ry
     estimated scf accuracy    <       0.00656328 Ry

     iteration # 16     ecut=   150.00 Ry     beta= 0.70
     CG style diagonalization
     ethr =  2.43E-05,  avg # of iterations =  4.3

     negative rho (up, down):  3.176E-01 0.000E+00

     total cpu time spent up to now is       31.5 secs

     total energy              =    -300.95771939 Ry
     estimated scf accuracy    <       0.25201915 Ry

     iteration # 17     ecut=   150.00 Ry     beta= 0.70
     CG style diagonalization
     ethr =  2.43E-05,  avg # of iterations =  3.1

     negative rho (up, down):  3.115E-01 0.000E+00

     total cpu time spent up to now is       33.0 secs

     total energy              =    -300.87866088 Ry
     estimated scf accuracy    <       0.27689118 Ry

     iteration # 18     ecut=   150.00 Ry     beta= 0.70
     CG style diagonalization
     ethr =  2.43E-05,  avg # of iterations =  5.1

     negative rho (up, down):  3.125E-01 0.000E+00

     total cpu time spent up to now is       35.5 secs

     total energy              =    -300.94011488 Ry
     estimated scf accuracy    <       0.06669984 Ry

     iteration # 19     ecut=   150.00 Ry     beta= 0.70
     CG style diagonalization
     ethr =  2.43E-05,  avg # of iterations =  3.1

     negative rho (up, down):  3.130E-01 0.000E+00

     total cpu time spent up to now is       36.9 secs

     total energy              =    -300.93877559 Ry
     estimated scf accuracy    <       0.07448591 Ry

     iteration # 20     ecut=   150.00 Ry     beta= 0.70
     CG style diagonalization
     ethr =  2.43E-05,  avg # of iterations =  3.0

     negative rho (up, down):  3.136E-01 0.000E+00

     total cpu time spent up to now is       38.3 secs

     total energy              =    -300.93628926 Ry
     estimated scf accuracy    <       0.06587401 Ry

     iteration # 21     ecut=   150.00 Ry     beta= 0.70
     CG style diagonalization
     ethr =  2.43E-05,  avg # of iterations =  3.0

     negative rho (up, down):  3.135E-01 0.000E+00

     total cpu time spent up to now is       39.6 secs

     total energy              =    -300.93826961 Ry
     estimated scf accuracy    <       0.04976362 Ry

     iteration # 22     ecut=   150.00 Ry     beta= 0.70
     CG style diagonalization
     ethr =  2.43E-05,  avg # of iterations =  3.0

     negative rho (up, down):  3.160E-01 0.000E+00

     total cpu time spent up to now is       41.0 secs

     total energy              =    -300.92143289 Ry
     estimated scf accuracy    <       0.06088947 Ry

     iteration # 23     ecut=   150.00 Ry     beta= 0.70
     CG style diagonalization
     ethr =  2.43E-05,  avg # of iterations =  4.2

     negative rho (up, down):  3.134E-01 0.000E+00

     total cpu time spent up to now is       43.0 secs

     total energy              =    -300.92896058 Ry
     estimated scf accuracy    <       0.00134591 Ry

     iteration # 24     ecut=   150.00 Ry     beta= 0.70
     CG style diagonalization
     c_bands:  1 eigenvalues not converged
     ethr =  4.98E-06,  avg # of iterations =  3.9

     negative rho (up, down):  3.143E-01 0.000E+00

     total cpu time spent up to now is       44.9 secs

     total energy              =    -300.92774547 Ry
     estimated scf accuracy    <       0.01003539 Ry

     iteration # 25     ecut=   150.00 Ry     beta= 0.70
     CG style diagonalization
     ethr =  4.98E-06,  avg # of iterations =  4.1

     negative rho (up, down):  3.141E-01 0.000E+00

     total cpu time spent up to now is       46.8 secs

     total energy              =    -300.92952869 Ry
     estimated scf accuracy    <       0.00228138 Ry

     iteration # 26     ecut=   150.00 Ry     beta= 0.70
     CG style diagonalization
     ethr =  4.98E-06,  avg # of iterations =  3.1

     negative rho (up, down):  3.141E-01 0.000E+00

     total cpu time spent up to now is       48.3 secs

     total energy              =    -300.92969951 Ry
     estimated scf accuracy    <       0.00009542 Ry

     iteration # 27     ecut=   150.00 Ry     beta= 0.70
     CG style diagonalization
     ethr =  3.53E-07,  avg # of iterations =  3.4

     negative rho (up, down):  3.141E-01 0.000E+00

     total cpu time spent up to now is       49.9 secs

     total energy              =    -300.92972071 Ry
     estimated scf accuracy    <       0.00000152 Ry

     iteration # 28     ecut=   150.00 Ry     beta= 0.70
     CG style diagonalization
     ethr =  5.62E-09,  avg # of iterations =  4.2

     negative rho (up, down):  3.141E-01 0.000E+00

     total cpu time spent up to now is       52.0 secs

     total energy              =    -300.92972577 Ry
     estimated scf accuracy    <       0.00000840 Ry

     iteration # 29     ecut=   150.00 Ry     beta= 0.70
     CG style diagonalization
     ethr =  5.62E-09,  avg # of iterations =  3.6

     negative rho (up, down):  3.141E-01 0.000E+00

     total cpu time spent up to now is       53.6 secs

     total energy              =    -300.92972675 Ry
     estimated scf accuracy    <       0.00000032 Ry

     iteration # 30     ecut=   150.00 Ry     beta= 0.70
     CG style diagonalization
     ethr =  1.19E-09,  avg # of iterations =  4.1

     negative rho (up, down):  3.141E-01 0.000E+00

     total cpu time spent up to now is       55.5 secs

     total energy              =    -300.92972711 Ry
     estimated scf accuracy    <       0.00000640 Ry

     iteration # 31     ecut=   150.00 Ry     beta= 0.70
     CG style diagonalization
     ethr =  1.19E-09,  avg # of iterations =  3.1

     negative rho (up, down):  3.141E-01 0.000E+00

     total cpu time spent up to now is       56.9 secs

     total energy              =    -300.92972619 Ry
     estimated scf accuracy    <       0.00000482 Ry

     iteration # 32     ecut=   150.00 Ry     beta= 0.70
     CG style diagonalization
     ethr =  1.19E-09,  avg # of iterations =  4.0

     negative rho (up, down):  3.141E-01 0.000E+00

     total cpu time spent up to now is       58.8 secs

     total energy              =    -300.92972655 Ry
     estimated scf accuracy    <       0.00000010 Ry

     iteration # 33     ecut=   150.00 Ry     beta= 0.70
     CG style diagonalization
     ethr =  3.78E-10,  avg # of iterations =  3.5

     negative rho (up, down):  3.141E-01 0.000E+00

     total cpu time spent up to now is       60.4 secs

     total energy              =    -300.92972657 Ry
     estimated scf accuracy    <       0.00000003 Ry

     iteration # 34     ecut=   150.00 Ry     beta= 0.70
     CG style diagonalization
     ethr =  1.25E-10,  avg # of iterations =  3.2

     negative rho (up, down):  3.141E-01 0.000E+00

     total cpu time spent up to now is       61.9 secs

     End of self-consistent calculation

     Number of k-points >= 100: set verbosity='high' to print the bands.

     the Fermi energy is    18.3001 ev

!    total energy              =    -300.92972658 Ry
     estimated scf accuracy    <          2.5E-11 Ry
     smearing contrib. (-TS)   =      -0.00012693 Ry
     internal energy E=F+TS    =    -300.92959965 Ry

     convergence has been achieved in  34 iterations

     negative rho (up, down):  3.141E-01 0.000E+00

     Forces acting on atoms (cartesian axes, Ry/au):

     atom    1 type  1   force =     0.00000000    0.00000000    0.00000000
     atom    2 type  2   force =     0.00000000    0.00000000    0.00000000

     Total force =     0.000000     Total SCF correction =     0.000000


     Computing stress (Cartesian axis) and pressure


     negative rho (up, down):  3.141E-01 0.000E+00
          total   stress  (Ry/bohr**3)                   (kbar)     P=     -160.02
  -0.00113186   0.00000000   0.00000000         -166.50        0.00        0.00
   0.00000000  -0.00113186   0.00000000            0.00     -166.50        0.00
   0.00000000   0.00000000  -0.00099971            0.00        0.00     -147.06


     Wentzcovitch Damped Cell Dynamics Minimization:
     convergence thresholds EPSE = 7.35E-05  EPSF = 1.94E-04

     Entering Dynamics;  it =     1   time =  0.00000 pico-seconds

  new lattice vectors (alat unit) :
   0.998442849   0.000000000   0.000000000
   0.000000000   0.998442849   0.000000000
   0.000000000   0.000000000   1.177308560
  new unit-cell volume =    211.7129 (a.u.)^3
  new positions in cryst coord
Ti       0.000000000   0.000000000   0.000000000
Ir       0.500000000   0.500000000   0.500000000
  new positions in cart coord (alat unit)
Ti       0.000000000   0.000000000   0.000000000
Ir       0.499221424   0.499221424   0.588654280

     Ekin =     0.00000000 Ry    T =    0.0 K  Etot =     -300.92972658
     new unit-cell volume =    211.71290 a.u.^3 (    31.37262 Ang^3 )
     density =     20.49962 g/cm^3

CELL_PARAMETERS (alat=  5.65028300)
   0.998442849   0.000000000   0.000000000
   0.000000000   0.998442849   0.000000000
   0.000000000   0.000000000   1.177308560

ATOMIC_POSITIONS (crystal)
Ti            0.0000000000        0.0000000000        0.0000000000    0   0   0
Ir            0.5000000000        0.5000000000        0.5000000000    0   0   0



     Writing output data file ./TiIr.P4mmm.save/
     NEW-OLD atomic charge density approx. for the potential

     negative rho (up, down):  3.124E-01 0.000E+00
     extrapolated charge   26.88517, renormalised to   27.00000

     total cpu time spent up to now is       64.4 secs

     Self-consistent Calculation

     iteration #  1     ecut=   150.00 Ry     beta= 0.70
     CG style diagonalization
     ethr =  1.00E-06,  avg # of iterations =  4.9

     negative rho (up, down):  3.162E-01 0.000E+00

     total cpu time spent up to now is       67.2 secs

     total energy              =    -300.92757839 Ry
     estimated scf accuracy    <       0.00266209 Ry

     iteration #  2     ecut=   150.00 Ry     beta= 0.70
     CG style diagonalization
     ethr =  9.86E-06,  avg # of iterations =  4.8

     negative rho (up, down):  3.146E-01 0.000E+00

     total cpu time spent up to now is       69.4 secs

     total energy              =    -300.92916144 Ry
     estimated scf accuracy    <       0.01329364 Ry

     iteration #  3     ecut=   150.00 Ry     beta= 0.70
     CG style diagonalization
     ethr =  9.86E-06,  avg # of iterations =  3.8

     negative rho (up, down):  3.146E-01 0.000E+00

     total cpu time spent up to now is       71.1 secs

     total energy              =    -300.93049906 Ry
     estimated scf accuracy    <       0.00453841 Ry

     iteration #  4     ecut=   150.00 Ry     beta= 0.70
     CG style diagonalization
     ethr =  9.86E-06,  avg # of iterations =  3.2

     negative rho (up, down):  3.145E-01 0.000E+00

     total cpu time spent up to now is       72.6 secs

     total energy              =    -300.93081846 Ry
     estimated scf accuracy    <       0.00058897 Ry

     iteration #  5     ecut=   150.00 Ry     beta= 0.70
     CG style diagonalization
     ethr =  2.18E-06,  avg # of iterations =  3.1

     negative rho (up, down):  3.141E-01 0.000E+00

     total cpu time spent up to now is       74.1 secs

     total energy              =    -300.93068500 Ry
     estimated scf accuracy    <       0.00038157 Ry

     iteration #  6     ecut=   150.00 Ry     beta= 0.70
     CG style diagonalization
     ethr =  1.41E-06,  avg # of iterations =  3.4

     negative rho (up, down):  3.142E-01 0.000E+00

     total cpu time spent up to now is       75.7 secs

     total energy              =    -300.93074934 Ry
     estimated scf accuracy    <       0.00005096 Ry

     iteration #  7     ecut=   150.00 Ry     beta= 0.70
     CG style diagonalization
     ethr =  1.89E-07,  avg # of iterations =  3.3

     negative rho (up, down):  3.142E-01 0.000E+00

     total cpu time spent up to now is       77.2 secs

     total energy              =    -300.93075176 Ry
     estimated scf accuracy    <       0.00004948 Ry

     iteration #  8     ecut=   150.00 Ry     beta= 0.70
     CG style diagonalization
     ethr =  1.83E-07,  avg # of iterations =  3.0

     negative rho (up, down):  3.142E-01 0.000E+00

     total cpu time spent up to now is       78.6 secs

     total energy              =    -300.93075052 Ry
     estimated scf accuracy    <       0.00003554 Ry

     iteration #  9     ecut=   150.00 Ry     beta= 0.70
     CG style diagonalization
     ethr =  1.32E-07,  avg # of iterations =  3.0

     negative rho (up, down):  3.141E-01 0.000E+00

     total cpu time spent up to now is       79.9 secs

     total energy              =    -300.93073533 Ry
     estimated scf accuracy    <       0.00003003 Ry

     iteration # 10     ecut=   150.00 Ry     beta= 0.70
     CG style diagonalization
     ethr =  1.11E-07,  avg # of iterations =  3.5

     negative rho (up, down):  3.141E-01 0.000E+00

     total cpu time spent up to now is       81.6 secs

     total energy              =    -300.93074104 Ry
     estimated scf accuracy    <       0.00000173 Ry

     iteration # 11     ecut=   150.00 Ry     beta= 0.70
     CG style diagonalization
     ethr =  6.40E-09,  avg # of iterations =  3.5

     negative rho (up, down):  3.141E-01 0.000E+00

     total cpu time spent up to now is       83.2 secs

     total energy              =    -300.93074159 Ry
     estimated scf accuracy    <       0.00000204 Ry

     iteration # 12     ecut=   150.00 Ry     beta= 0.70
     CG style diagonalization
     ethr =  6.40E-09,  avg # of iterations =  3.0

     negative rho (up, down):  3.141E-01 0.000E+00

     total cpu time spent up to now is       84.6 secs

     total energy              =    -300.93074169 Ry
     estimated scf accuracy    <       0.00000173 Ry

     iteration # 13     ecut=   150.00 Ry     beta= 0.70
     CG style diagonalization
     ethr =  6.40E-09,  avg # of iterations =  3.0

     negative rho (up, down):  3.141E-01 0.000E+00

     total cpu time spent up to now is       86.0 secs

     total energy              =    -300.93074149 Ry
     estimated scf accuracy    <       0.00000215 Ry

     iteration # 14     ecut=   150.00 Ry     beta= 0.70
     CG style diagonalization
     ethr =  6.40E-09,  avg # of iterations =  3.0

     negative rho (up, down):  3.141E-01 0.000E+00

     total cpu time spent up to now is       87.4 secs

     total energy              =    -300.93074141 Ry
     estimated scf accuracy    <       0.00000095 Ry

     iteration # 15     ecut=   150.00 Ry     beta= 0.70
     CG style diagonalization
     ethr =  3.53E-09,  avg # of iterations =  3.0

     negative rho (up, down):  3.141E-01 0.000E+00

     total cpu time spent up to now is       88.7 secs

     total energy              =    -300.93074150 Ry
     estimated scf accuracy    <       0.00000029 Ry

     iteration # 16     ecut=   150.00 Ry     beta= 0.70
     CG style diagonalization
     ethr =  1.07E-09,  avg # of iterations =  3.1

     negative rho (up, down):  3.141E-01 0.000E+00

     total cpu time spent up to now is       90.1 secs

     total energy              =    -300.93074158 Ry
     estimated scf accuracy    <       0.00000056 Ry

     iteration # 17     ecut=   150.00 Ry     beta= 0.70
     CG style diagonalization
     ethr =  1.07E-09,  avg # of iterations =  3.0

     negative rho (up, down):  3.141E-01 0.000E+00

     total cpu time spent up to now is       91.5 secs

     total energy              =    -300.93074152 Ry
     estimated scf accuracy    <       0.00000110 Ry

     iteration # 18     ecut=   150.00 Ry     beta= 0.70
     CG style diagonalization
     ethr =  1.07E-09,  avg # of iterations =  3.0

     negative rho (up, down):  3.141E-01 0.000E+00

     total cpu time spent up to now is       92.9 secs

     total energy              =    -300.93074143 Ry
     estimated scf accuracy    <       0.00000065 Ry

     iteration # 19     ecut=   150.00 Ry     beta= 0.70
     CG style diagonalization
     ethr =  1.07E-09,  avg # of iterations =  3.1

     negative rho (up, down):  3.141E-01 0.000E+00

     total cpu time spent up to now is       94.3 secs

     total energy              =    -300.93074144 Ry
     estimated scf accuracy    <       0.00000013 Ry

     iteration # 20     ecut=   150.00 Ry     beta= 0.70
     CG style diagonalization
     ethr =  4.70E-10,  avg # of iterations =  3.1

     negative rho (up, down):  3.141E-01 0.000E+00

     total cpu time spent up to now is       95.7 secs

     total energy              =    -300.93074142 Ry
     estimated scf accuracy    <       0.00000006 Ry

     iteration # 21     ecut=   150.00 Ry     beta= 0.70
     CG style diagonalization
     ethr =  2.26E-10,  avg # of iterations =  3.5

     negative rho (up, down):  3.141E-01 0.000E+00

     total cpu time spent up to now is       97.4 secs

     End of self-consistent calculation

     Number of k-points >= 100: set verbosity='high' to print the bands.

     the Fermi energy is    18.4011 ev

!    total energy              =    -300.93074143 Ry
     estimated scf accuracy    <          2.9E-09 Ry
     smearing contrib. (-TS)   =      -0.00012734 Ry
     internal energy E=F+TS    =    -300.93061410 Ry

     convergence has been achieved in  21 iterations

     negative rho (up, down):  3.141E-01 0.000E+00

     Forces acting on atoms (cartesian axes, Ry/au):

     atom    1 type  1   force =     0.00000000    0.00000000    0.00000000
     atom    2 type  2   force =     0.00000000    0.00000000    0.00000000

     Total force =     0.000000     Total SCF correction =     0.000000


     Computing stress (Cartesian axis) and pressure


     negative rho (up, down):  3.141E-01 0.000E+00
          total   stress  (Ry/bohr**3)                   (kbar)     P=     -151.74
  -0.00107608   0.00000000   0.00000000         -158.30        0.00        0.00
   0.00000000  -0.00107608   0.00000000            0.00     -158.30        0.00
   0.00000000   0.00000000  -0.00094233            0.00        0.00     -138.62


     Entering Dynamics;  it =     2   time =  0.00097 pico-seconds

  new lattice vectors (alat unit) :
   0.994644120   0.000000000   0.000000000
   0.000000000   0.994644120   0.000000000
   0.000000000   0.000000000   1.173374336
  new unit-cell volume =    209.4029 (a.u.)^3
  new positions in cryst coord
Ti       0.000000000   0.000000000   0.000000000
Ir       0.500000000   0.500000000   0.500000000
  new positions in cart coord (alat unit)
Ti       0.000000000   0.000000000   0.000000000
Ir       0.497322060   0.497322060   0.586687168

     Ekin =     0.00103173 Ry    T =   36.2 K  Etot =     -300.92970970
     new unit-cell volume =    209.40287 a.u.^3 (    31.03030 Ang^3 )
     density =     20.72577 g/cm^3

CELL_PARAMETERS (alat=  5.65028300)
   0.994644120   0.000000000   0.000000000
   0.000000000   0.994644120   0.000000000
   0.000000000   0.000000000   1.173374336

ATOMIC_POSITIONS (crystal)
Ti            0.0000000000        0.0000000000        0.0000000000    0   0   0
Ir            0.5000000000        0.5000000000        0.5000000000    0   0   0



     Writing output data file ./TiIr.P4mmm.save/
     NEW-OLD atomic charge density approx. for the potential

     negative rho (up, down):  3.099E-01 0.000E+00
     extrapolated charge   26.71870, renormalised to   27.00000

     total cpu time spent up to now is      100.1 secs

     Self-consistent Calculation

     iteration #  1     ecut=   150.00 Ry     beta= 0.70
     CG style diagonalization
     c_bands:  1 eigenvalues not converged
     c_bands:  1 eigenvalues not converged
     c_bands:  1 eigenvalues not converged
     ethr =  1.00E-06,  avg # of iterations =  6.7

     negative rho (up, down):  3.196E-01 0.000E+00

     total cpu time spent up to now is      103.6 secs

     total energy              =    -300.91376280 Ry
     estimated scf accuracy    <       0.01654156 Ry

     iteration #  2     ecut=   150.00 Ry     beta= 0.70
     CG style diagonalization
     ethr =  6.13E-05,  avg # of iterations =  4.8

     negative rho (up, down):  3.156E-01 0.000E+00

     total cpu time spent up to now is      105.7 secs

     total energy              =    -300.92056852 Ry
     estimated scf accuracy    <       0.10333663 Ry

     iteration #  3     ecut=   150.00 Ry     beta= 0.70
     CG style diagonalization
     ethr =  6.13E-05,  avg # of iterations =  3.9

     negative rho (up, down):  3.153E-01 0.000E+00

     total cpu time spent up to now is      107.5 secs

     total energy              =    -300.93165319 Ry
     estimated scf accuracy    <       0.02460087 Ry

     iteration #  4     ecut=   150.00 Ry     beta= 0.70
     CG style diagonalization
     ethr =  6.13E-05,  avg # of iterations =  3.2

     negative rho (up, down):  3.150E-01 0.000E+00

     total cpu time spent up to now is      109.0 secs

     total energy              =    -300.93334548 Ry
     estimated scf accuracy    <       0.00341276 Ry

     iteration #  5     ecut=   150.00 Ry     beta= 0.70
     CG style diagonalization
     ethr =  1.26E-05,  avg # of iterations =  3.2

     negative rho (up, down):  3.142E-01 0.000E+00

     total cpu time spent up to now is      110.4 secs

     total energy              =    -300.93264736 Ry
     estimated scf accuracy    <       0.00210462 Ry

     iteration #  6     ecut=   150.00 Ry     beta= 0.70
     CG style diagonalization
     ethr =  7.79E-06,  avg # of iterations =  3.5

     negative rho (up, down):  3.142E-01 0.000E+00

     total cpu time spent up to now is      112.1 secs

     total energy              =    -300.93298645 Ry
     estimated scf accuracy    <       0.00035786 Ry

     iteration #  7     ecut=   150.00 Ry     beta= 0.70
     CG style diagonalization
     ethr =  1.33E-06,  avg # of iterations =  3.3

     negative rho (up, down):  3.142E-01 0.000E+00

     total cpu time spent up to now is      113.6 secs

     total energy              =    -300.93300939 Ry
     estimated scf accuracy    <       0.00018427 Ry

     iteration #  8     ecut=   150.00 Ry     beta= 0.70
     CG style diagonalization
     ethr =  6.82E-07,  avg # of iterations =  3.0

     negative rho (up, down):  3.140E-01 0.000E+00

     total cpu time spent up to now is      115.0 secs

     total energy              =    -300.93296683 Ry
     estimated scf accuracy    <       0.00012102 Ry

     iteration #  9     ecut=   150.00 Ry     beta= 0.70
     CG style diagonalization
     ethr =  4.48E-07,  avg # of iterations =  3.3

     negative rho (up, down):  3.139E-01 0.000E+00

     total cpu time spent up to now is      116.5 secs

     total energy              =    -300.93297796 Ry
     estimated scf accuracy    <       0.00000561 Ry

     iteration # 10     ecut=   150.00 Ry     beta= 0.70
     CG style diagonalization
     ethr =  2.08E-08,  avg # of iterations =  4.3

     negative rho (up, down):  3.140E-01 0.000E+00

     total cpu time spent up to now is      118.5 secs

     total energy              =    -300.93298114 Ry
     estimated scf accuracy    <       0.00000460 Ry

     iteration # 11     ecut=   150.00 Ry     beta= 0.70
     CG style diagonalization
     ethr =  1.70E-08,  avg # of iterations =  3.5

     negative rho (up, down):  3.140E-01 0.000E+00

     total cpu time spent up to now is      120.1 secs

     total energy              =    -300.93298219 Ry
     estimated scf accuracy    <       0.00000022 Ry

     iteration # 12     ecut=   150.00 Ry     beta= 0.70
     CG style diagonalization
     ethr =  8.32E-10,  avg # of iterations =  4.0

     negative rho (up, down):  3.140E-01 0.000E+00

     total cpu time spent up to now is      122.0 secs

     total energy              =    -300.93298243 Ry
     estimated scf accuracy    <       0.00000070 Ry

     iteration # 13     ecut=   150.00 Ry     beta= 0.70
     CG style diagonalization
     ethr =  8.32E-10,  avg # of iterations =  3.1

     negative rho (up, down):  3.140E-01 0.000E+00

     total cpu time spent up to now is      123.4 secs

     total energy              =    -300.93298216 Ry
     estimated scf accuracy    <       0.00000068 Ry

     iteration # 14     ecut=   150.00 Ry     beta= 0.70
     CG style diagonalization
     ethr =  8.32E-10,  avg # of iterations =  3.9

     negative rho (up, down):  3.140E-01 0.000E+00

     total cpu time spent up to now is      125.2 secs

     total energy              =    -300.93298234 Ry
     estimated scf accuracy    <       0.00000027 Ry

     iteration # 15     ecut=   150.00 Ry     beta= 0.70
     CG style diagonalization
     ethr =  8.32E-10,  avg # of iterations =  3.0

     negative rho (up, down):  3.140E-01 0.000E+00

     total cpu time spent up to now is      126.6 secs

     total energy              =    -300.93298229 Ry
     estimated scf accuracy    <       0.00000027 Ry

     iteration # 16     ecut=   150.00 Ry     beta= 0.70
     CG style diagonalization
     ethr =  8.32E-10,  avg # of iterations =  3.0

     negative rho (up, down):  3.140E-01 0.000E+00

     total cpu time spent up to now is      128.0 secs

     total energy              =    -300.93298230 Ry
     estimated scf accuracy    <       0.00000002 Ry

     iteration # 17     ecut=   150.00 Ry     beta= 0.70
     CG style diagonalization
     ethr =  7.04E-11,  avg # of iterations =  3.3

     negative rho (up, down):  3.140E-01 0.000E+00

     total cpu time spent up to now is      129.5 secs

     End of self-consistent calculation

     Number of k-points >= 100: set verbosity='high' to print the bands.

     the Fermi energy is    18.6494 ev

!    total energy              =    -300.93298231 Ry
     estimated scf accuracy    <          6.0E-10 Ry
     smearing contrib. (-TS)   =      -0.00012905 Ry
     internal energy E=F+TS    =    -300.93285325 Ry

     convergence has been achieved in  17 iterations

     negative rho (up, down):  3.140E-01 0.000E+00

     Forces acting on atoms (cartesian axes, Ry/au):

     atom    1 type  1   force =     0.00000000    0.00000000    0.00000000
     atom    2 type  2   force =     0.00000000    0.00000000    0.00000000

     Total force =     0.000000     Total SCF correction =     0.000000


     Computing stress (Cartesian axis) and pressure


     negative rho (up, down):  3.140E-01 0.000E+00
          total   stress  (Ry/bohr**3)                   (kbar)     P=     -131.95
  -0.00094241   0.00000000   0.00000000         -138.63        0.00        0.00
   0.00000000  -0.00094241   0.00000000            0.00     -138.63        0.00
   0.00000000   0.00000000  -0.00080617            0.00        0.00     -118.59


     Entering Dynamics;  it =     3   time =  0.00194 pico-seconds

  new lattice vectors (alat unit) :
   0.988834089   0.000000000  -0.000000000
   0.000000000   0.988834089  -0.000000000
  -0.000000000  -0.000000000   1.167415992
  new unit-cell volume =    205.9127 (a.u.)^3
  new positions in cryst coord
Ti       0.000000000   0.000000000   0.000000000
Ir       0.500000000   0.500000000   0.500000000
  new positions in cart coord (alat unit)
Ti       0.000000000   0.000000000   0.000000000
Ir       0.494417045   0.494417045   0.583707996

     Ekin =     0.00327367 Ry    T =   75.5 K  Etot =     -300.92970864
     new unit-cell volume =    205.91268 a.u.^3 (    30.51311 Ang^3 )
     density =     21.07706 g/cm^3

CELL_PARAMETERS (alat=  5.65028300)
   0.988834089   0.000000000  -0.000000000
   0.000000000   0.988834089  -0.000000000
  -0.000000000  -0.000000000   1.167415992

ATOMIC_POSITIONS (crystal)
Ti            0.0000000000        0.0000000000        0.0000000000    0   0   0
Ir            0.5000000000        0.5000000000        0.5000000000    0   0   0



     Writing output data file ./TiIr.P4mmm.save/
     NEW-OLD atomic charge density approx. for the potential

     negative rho (up, down):  3.074E-01 0.000E+00
     extrapolated charge   26.56778, renormalised to   27.00000

     total cpu time spent up to now is      132.2 secs

     Self-consistent Calculation

     iteration #  1     ecut=   150.00 Ry     beta= 0.70
     CG style diagonalization
     c_bands:  1 eigenvalues not converged
     c_bands:  1 eigenvalues not converged
     c_bands:  1 eigenvalues not converged
     c_bands:  1 eigenvalues not converged
     c_bands:  1 eigenvalues not converged
     c_bands:  1 eigenvalues not converged
     ethr =  1.00E-06,  avg # of iterations =  7.8

     negative rho (up, down):  3.222E-01 0.000E+00

     total cpu time spent up to now is      136.2 secs

     total energy              =    -300.89109964 Ry
     estimated scf accuracy    <       0.03854595 Ry

     iteration #  2     ecut=   150.00 Ry     beta= 0.70
     CG style diagonalization
     ethr =  1.43E-04,  avg # of iterations =  4.8

     negative rho (up, down):  3.162E-01 0.000E+00

     total cpu time spent up to now is      138.3 secs

     total energy              =    -300.90615454 Ry
     estimated scf accuracy    <       0.24245034 Ry

     iteration #  3     ecut=   150.00 Ry     beta= 0.70
     CG style diagonalization
     ethr =  1.43E-04,  avg # of iterations =  3.9

     negative rho (up, down):  3.158E-01 0.000E+00

     total cpu time spent up to now is      140.1 secs

     total energy              =    -300.93311197 Ry
     estimated scf accuracy    <       0.05232653 Ry

     iteration #  4     ecut=   150.00 Ry     beta= 0.70
     CG style diagonalization
     ethr =  1.43E-04,  avg # of iterations =  3.2

     negative rho (up, down):  3.152E-01 0.000E+00

     total cpu time spent up to now is      141.6 secs

     total energy              =    -300.93660071 Ry
     estimated scf accuracy    <       0.00776255 Ry

     iteration #  5     ecut=   150.00 Ry     beta= 0.70
     CG style diagonalization
     ethr =  2.88E-05,  avg # of iterations =  3.2

     negative rho (up, down):  3.143E-01 0.000E+00

     total cpu time spent up to now is      143.0 secs

     total energy              =    -300.93530828 Ry
     estimated scf accuracy    <       0.00481563 Ry

     iteration #  6     ecut=   150.00 Ry     beta= 0.70
     CG style diagonalization
     ethr =  1.78E-05,  avg # of iterations =  3.4

     negative rho (up, down):  3.142E-01 0.000E+00

     total cpu time spent up to now is      144.6 secs

     total energy              =    -300.93580765 Ry
     estimated scf accuracy    <       0.00120786 Ry

     iteration #  7     ecut=   150.00 Ry     beta= 0.70
     CG style diagonalization
     ethr =  4.47E-06,  avg # of iterations =  3.2

     negative rho (up, down):  3.141E-01 0.000E+00

     total cpu time spent up to now is      146.1 secs

     total energy              =    -300.93578330 Ry
     estimated scf accuracy    <       0.00058909 Ry

     iteration #  8     ecut=   150.00 Ry     beta= 0.70
     CG style diagonalization
     ethr =  2.18E-06,  avg # of iterations =  3.1

     negative rho (up, down):  3.136E-01 0.000E+00

     total cpu time spent up to now is      147.5 secs

     total energy              =    -300.93565433 Ry
     estimated scf accuracy    <       0.00027096 Ry

     iteration #  9     ecut=   150.00 Ry     beta= 0.70
     CG style diagonalization
     ethr =  1.00E-06,  avg # of iterations =  3.7

     negative rho (up, down):  3.137E-01 0.000E+00

     total cpu time spent up to now is      149.3 secs

     total energy              =    -300.93574126 Ry
     estimated scf accuracy    <       0.00003133 Ry

     iteration # 10     ecut=   150.00 Ry     beta= 0.70
     CG style diagonalization
     ethr =  1.16E-07,  avg # of iterations =  3.4

     negative rho (up, down):  3.137E-01 0.000E+00

     total cpu time spent up to now is      150.8 secs

     total energy              =    -300.93574373 Ry
     estimated scf accuracy    <       0.00001117 Ry

     iteration # 11     ecut=   150.00 Ry     beta= 0.70
     CG style diagonalization
     ethr =  4.14E-08,  avg # of iterations =  3.4

     negative rho (up, down):  3.138E-01 0.000E+00

     total cpu time spent up to now is      152.4 secs

     total energy              =    -300.93574412 Ry
     estimated scf accuracy    <       0.00000358 Ry

     iteration # 12     ecut=   150.00 Ry     beta= 0.70
     CG style diagonalization
     ethr =  1.33E-08,  avg # of iterations =  3.4

     negative rho (up, down):  3.138E-01 0.000E+00

     total cpu time spent up to now is      154.0 secs

     total energy              =    -300.93574488 Ry
     estimated scf accuracy    <       0.00000021 Ry

     iteration # 13     ecut=   150.00 Ry     beta= 0.70
     CG style diagonalization
     ethr =  7.61E-10,  avg # of iterations =  3.6

     negative rho (up, down):  3.137E-01 0.000E+00

     total cpu time spent up to now is      155.6 secs

     total energy              =    -300.93574489 Ry
     estimated scf accuracy    <       0.00000013 Ry

     iteration # 14     ecut=   150.00 Ry     beta= 0.70
     CG style diagonalization
     ethr =  4.81E-10,  avg # of iterations =  3.2

     negative rho (up, down):  3.137E-01 0.000E+00

     total cpu time spent up to now is      157.1 secs

     total energy              =    -300.93574489 Ry
     estimated scf accuracy    <       0.00000003 Ry

     iteration # 15     ecut=   150.00 Ry     beta= 0.70
     CG style diagonalization
     ethr =  1.20E-10,  avg # of iterations =  3.4

     negative rho (up, down):  3.137E-01 0.000E+00

     total cpu time spent up to now is      158.7 secs

     End of self-consistent calculation

     Number of k-points >= 100: set verbosity='high' to print the bands.

     the Fermi energy is    19.0341 ev

!    total energy              =    -300.93574490 Ry
     estimated scf accuracy    <          7.6E-10 Ry
     smearing contrib. (-TS)   =      -0.00013322 Ry
     internal energy E=F+TS    =    -300.93561168 Ry

     convergence has been achieved in  15 iterations

     negative rho (up, down):  3.137E-01 0.000E+00

     Forces acting on atoms (cartesian axes, Ry/au):

     atom    1 type  1   force =     0.00000000    0.00000000    0.00000000
     atom    2 type  2   force =     0.00000000    0.00000000    0.00000000

     Total force =     0.000000     Total SCF correction =     0.000000


     Computing stress (Cartesian axis) and pressure


     negative rho (up, down):  3.137E-01 0.000E+00
          total   stress  (Ry/bohr**3)                   (kbar)     P=      -99.13
  -0.00071998   0.00000000  -0.00000000         -105.91        0.00       -0.00
   0.00000000  -0.00071998  -0.00000000            0.00     -105.91       -0.00
  -0.00000000  -0.00000000  -0.00058159           -0.00       -0.00      -85.56


     Entering Dynamics;  it =     4   time =  0.00290 pico-seconds

  new lattice vectors (alat unit) :
   0.981417273   0.000000000  -0.000000000
   0.000000000   0.981417273  -0.000000000
  -0.000000000  -0.000000000   1.159933276
  new unit-cell volume =    201.5352 (a.u.)^3
  new positions in cryst coord
Ti       0.000000000   0.000000000   0.000000000
Ir       0.500000000   0.500000000   0.500000000
  new positions in cart coord (alat unit)
Ti       0.000000000   0.000000000   0.000000000
Ir       0.490708637   0.490708637   0.579966638

     Ekin =     0.00605096 Ry    T =  121.1 K  Etot =     -300.92969394
     new unit-cell volume =    201.53524 a.u.^3 (    29.86444 Ang^3 )
     density =     21.53487 g/cm^3

CELL_PARAMETERS (alat=  5.65028300)
   0.981417273   0.000000000  -0.000000000
   0.000000000   0.981417273  -0.000000000
  -0.000000000  -0.000000000   1.159933276

ATOMIC_POSITIONS (crystal)
Ti            0.0000000000        0.0000000000        0.0000000000    0   0   0
Ir            0.5000000000        0.5000000000        0.5000000000    0   0   0



     Writing output data file ./TiIr.P4mmm.save/
     NEW-OLD atomic charge density approx. for the potential

     negative rho (up, down):  3.052E-01 0.000E+00
     extrapolated charge   26.44613, renormalised to   27.00000

     total cpu time spent up to now is      161.4 secs

     Self-consistent Calculation

     iteration #  1     ecut=   150.00 Ry     beta= 0.70
     CG style diagonalization
     c_bands:  1 eigenvalues not converged
     c_bands:  1 eigenvalues not converged
     c_bands:  1 eigenvalues not converged
     c_bands:  1 eigenvalues not converged
     c_bands:  1 eigenvalues not converged
     c_bands:  1 eigenvalues not converged
     ethr =  1.00E-06,  avg # of iterations =  8.5

     negative rho (up, down):  3.239E-01 0.000E+00

     total cpu time spent up to now is      165.9 secs

     total energy              =    -300.86715872 Ry
     estimated scf accuracy    <       0.06108832 Ry

     iteration #  2     ecut=   150.00 Ry     beta= 0.70
     CG style diagonalization
     ethr =  2.26E-04,  avg # of iterations =  4.8

     negative rho (up, down):  3.163E-01 0.000E+00

     total cpu time spent up to now is      168.1 secs

     total energy              =    -300.89365578 Ry
     estimated scf accuracy    <       0.35657354 Ry

     iteration #  3     ecut=   150.00 Ry     beta= 0.70
     CG style diagonalization
     ethr =  2.26E-04,  avg # of iterations =  3.9

     negative rho (up, down):  3.159E-01 0.000E+00

     total cpu time spent up to now is      169.8 secs

     total energy              =    -300.93440365 Ry
     estimated scf accuracy    <       0.07731141 Ry

     iteration #  4     ecut=   150.00 Ry     beta= 0.70
     CG style diagonalization
     ethr =  2.26E-04,  avg # of iterations =  3.2

     negative rho (up, down):  3.152E-01 0.000E+00

     total cpu time spent up to now is      171.3 secs

     total energy              =    -300.93941586 Ry
     estimated scf accuracy    <       0.01197982 Ry

     iteration #  5     ecut=   150.00 Ry     beta= 0.70
     CG style diagonalization
     ethr =  4.44E-05,  avg # of iterations =  3.1

     negative rho (up, down):  3.141E-01 0.000E+00

     total cpu time spent up to now is      172.8 secs

     total energy              =    -300.93746377 Ry
     estimated scf accuracy    <       0.00743278 Ry

     iteration #  6     ecut=   150.00 Ry     beta= 0.70
     CG style diagonalization
     ethr =  2.75E-05,  avg # of iterations =  3.4

     negative rho (up, down):  3.140E-01 0.000E+00

     total cpu time spent up to now is      174.4 secs

     total energy              =    -300.93819328 Ry
     estimated scf accuracy    <       0.00201734 Ry

     iteration #  7     ecut=   150.00 Ry     beta= 0.70
     CG style diagonalization
     ethr =  7.47E-06,  avg # of iterations =  3.2

     negative rho (up, down):  3.137E-01 0.000E+00

     total cpu time spent up to now is      175.8 secs

     total energy              =    -300.93812456 Ry
     estimated scf accuracy    <       0.00104212 Ry

     iteration #  8     ecut=   150.00 Ry     beta= 0.70
     CG style diagonalization
     ethr =  3.86E-06,  avg # of iterations =  3.1

     negative rho (up, down):  3.131E-01 0.000E+00

     total cpu time spent up to now is      177.3 secs

     total energy              =    -300.93787860 Ry
     estimated scf accuracy    <       0.00046856 Ry

     iteration #  9     ecut=   150.00 Ry     beta= 0.70
     CG style diagonalization
     ethr =  1.74E-06,  avg # of iterations =  3.9

     negative rho (up, down):  3.132E-01 0.000E+00

     total cpu time spent up to now is      179.1 secs

     total energy              =    -300.93803905 Ry
     estimated scf accuracy    <       0.00007219 Ry

     iteration # 10     ecut=   150.00 Ry     beta= 0.70
     CG style diagonalization
     ethr =  2.67E-07,  avg # of iterations =  3.4

     negative rho (up, down):  3.133E-01 0.000E+00

     total cpu time spent up to now is      180.7 secs

     total energy              =    -300.93804511 Ry
     estimated scf accuracy    <       0.00001941 Ry

     iteration # 11     ecut=   150.00 Ry     beta= 0.70
     CG style diagonalization
     ethr =  7.19E-08,  avg # of iterations =  3.4

     negative rho (up, down):  3.133E-01 0.000E+00

     total cpu time spent up to now is      182.2 secs

     total energy              =    -300.93804689 Ry
     estimated scf accuracy    <       0.00000461 Ry

     iteration # 12     ecut=   150.00 Ry     beta= 0.70
     CG style diagonalization
     ethr =  1.71E-08,  avg # of iterations =  3.4

     negative rho (up, down):  3.133E-01 0.000E+00

     total cpu time spent up to now is      183.8 secs

     total energy              =    -300.93804779 Ry
     estimated scf accuracy    <       0.00000020 Ry

     iteration # 13     ecut=   150.00 Ry     beta= 0.70
     CG style diagonalization
     ethr =  7.46E-10,  avg # of iterations =  3.7

     negative rho (up, down):  3.133E-01 0.000E+00

     total cpu time spent up to now is      185.6 secs

     total energy              =    -300.93804785 Ry
     estimated scf accuracy    <       0.00000009 Ry

     iteration # 14     ecut=   150.00 Ry     beta= 0.70
     CG style diagonalization
     ethr =  3.33E-10,  avg # of iterations =  3.3

     negative rho (up, down):  3.133E-01 0.000E+00

     total cpu time spent up to now is      187.1 secs

     total energy              =    -300.93804785 Ry
     estimated scf accuracy    <       0.00000005 Ry

     iteration # 15     ecut=   150.00 Ry     beta= 0.70
     CG style diagonalization
     ethr =  1.80E-10,  avg # of iterations =  3.2

     negative rho (up, down):  3.133E-01 0.000E+00

     total cpu time spent up to now is      188.6 secs

     End of self-consistent calculation

     Number of k-points >= 100: set verbosity='high' to print the bands.

     the Fermi energy is    19.5337 ev

!    total energy              =    -300.93804785 Ry
     estimated scf accuracy    <          3.2E-10 Ry
     smearing contrib. (-TS)   =      -0.00013795 Ry
     internal energy E=F+TS    =    -300.93790991 Ry

     convergence has been achieved in  15 iterations

     negative rho (up, down):  3.133E-01 0.000E+00

     Forces acting on atoms (cartesian axes, Ry/au):

     atom    1 type  1   force =     0.00000000    0.00000000    0.00000000
     atom    2 type  2   force =     0.00000000    0.00000000    0.00000000

     Total force =     0.000000     Total SCF correction =     0.000000


     Computing stress (Cartesian axis) and pressure


     negative rho (up, down):  3.133E-01 0.000E+00
          total   stress  (Ry/bohr**3)                   (kbar)     P=      -53.47
  -0.00040979   0.00000000  -0.00000000          -60.28        0.00       -0.00
   0.00000000  -0.00040979  -0.00000000            0.00      -60.28       -0.00
  -0.00000000  -0.00000000  -0.00027084           -0.00       -0.00      -39.84


     Entering Dynamics;  it =     5   time =  0.00387 pico-seconds

  new lattice vectors (alat unit) :
   0.972995200   0.000000000  -0.000000000
   0.000000000   0.972995200  -0.000000000
  -0.000000000  -0.000000000   1.151659866
  new unit-cell volume =    196.6782 (a.u.)^3
  new positions in cryst coord
Ti       0.000000000   0.000000000   0.000000000
Ir       0.500000000   0.500000000   0.500000000
  new positions in cart coord (alat unit)
Ti       0.000000000   0.000000000   0.000000000
Ir       0.486497600   0.486497600   0.575829933

     Ekin =     0.00838126 Ry    T =  164.4 K  Etot =     -300.92966659
     new unit-cell volume =    196.67820 a.u.^3 (    29.14470 Ang^3 )
     density =     22.06668 g/cm^3

CELL_PARAMETERS (alat=  5.65028300)
   0.972995200   0.000000000  -0.000000000
   0.000000000   0.972995200  -0.000000000
  -0.000000000  -0.000000000   1.151659866

ATOMIC_POSITIONS (crystal)
Ti            0.0000000000        0.0000000000        0.0000000000    0   0   0
Ir            0.5000000000        0.5000000000        0.5000000000    0   0   0



     Writing output data file ./TiIr.P4mmm.save/
     NEW-OLD atomic charge density approx. for the potential

     negative rho (up, down):  3.035E-01 0.000E+00
     extrapolated charge   26.37027, renormalised to   27.00000

     total cpu time spent up to now is      191.3 secs

     Self-consistent Calculation

     iteration #  1     ecut=   150.00 Ry     beta= 0.70
     CG style diagonalization
     c_bands:  1 eigenvalues not converged
     c_bands:  1 eigenvalues not converged
     c_bands:  1 eigenvalues not converged
     c_bands:  1 eigenvalues not converged
     c_bands:  1 eigenvalues not converged
     c_bands:  1 eigenvalues not converged
     c_bands:  1 eigenvalues not converged
     ethr =  1.00E-06,  avg # of iterations =  8.7

     negative rho (up, down):  3.244E-01 0.000E+00

     total cpu time spent up to now is      195.8 secs

     total energy              =    -300.85141687 Ry
     estimated scf accuracy    <       0.07510219 Ry

     iteration #  2     ecut=   150.00 Ry     beta= 0.70
     CG style diagonalization
     ethr =  2.78E-04,  avg # of iterations =  4.8

     negative rho (up, down):  3.160E-01 0.000E+00

     total cpu time spent up to now is      197.9 secs

     total energy              =    -300.88946403 Ry
     estimated scf accuracy    <       0.39333255 Ry

     iteration #  3     ecut=   150.00 Ry     beta= 0.70
     CG style diagonalization
     ethr =  2.78E-04,  avg # of iterations =  3.8

     negative rho (up, down):  3.156E-01 0.000E+00

     total cpu time spent up to now is      199.7 secs

     total energy              =    -300.93486859 Ry
     estimated scf accuracy    <       0.08847004 Ry

     iteration #  4     ecut=   150.00 Ry     beta= 0.70
     CG style diagonalization
     ethr =  2.78E-04,  avg # of iterations =  3.1

     negative rho (up, down):  3.149E-01 0.000E+00

     total cpu time spent up to now is      201.1 secs

     total energy              =    -300.94062524 Ry
     estimated scf accuracy    <       0.01411258 Ry

     iteration #  5     ecut=   150.00 Ry     beta= 0.70
     CG style diagonalization
     ethr =  5.23E-05,  avg # of iterations =  3.1

     negative rho (up, down):  3.135E-01 0.000E+00

     total cpu time spent up to now is      202.6 secs

     total energy              =    -300.93802812 Ry
     estimated scf accuracy    <       0.00890895 Ry

     iteration #  6     ecut=   150.00 Ry     beta= 0.70
     CG style diagonalization
     ethr =  3.30E-05,  avg # of iterations =  3.4

     negative rho (up, down):  3.134E-01 0.000E+00

     total cpu time spent up to now is      204.1 secs

     total energy              =    -300.93905461 Ry
     estimated scf accuracy    <       0.00218904 Ry

     iteration #  7     ecut=   150.00 Ry     beta= 0.70
     CG style diagonalization
     ethr =  8.11E-06,  avg # of iterations =  3.2

     negative rho (up, down):  3.132E-01 0.000E+00

     total cpu time spent up to now is      205.6 secs

     total energy              =    -300.93900842 Ry
     estimated scf accuracy    <       0.00112302 Ry

     iteration #  8     ecut=   150.00 Ry     beta= 0.70
     CG style diagonalization
     ethr =  4.16E-06,  avg # of iterations =  3.1

     negative rho (up, down):  3.125E-01 0.000E+00

     total cpu time spent up to now is      207.0 secs

     total energy              =    -300.93872218 Ry
     estimated scf accuracy    <       0.00054800 Ry

     iteration #  9     ecut=   150.00 Ry     beta= 0.70
     CG style diagonalization
     ethr =  2.03E-06,  avg # of iterations =  3.9

     negative rho (up, down):  3.126E-01 0.000E+00

     total cpu time spent up to now is      208.8 secs

     total energy              =    -300.93889242 Ry
     estimated scf accuracy    <       0.00006330 Ry

     iteration # 10     ecut=   150.00 Ry     beta= 0.70
     CG style diagonalization
     ethr =  2.34E-07,  avg # of iterations =  3.4

     negative rho (up, down):  3.127E-01 0.000E+00

     total cpu time spent up to now is      210.4 secs

     total energy              =    -300.93890569 Ry
     estimated scf accuracy    <       0.00000969 Ry

     iteration # 11     ecut=   150.00 Ry     beta= 0.70
     CG style diagonalization
     ethr =  3.59E-08,  avg # of iterations =  3.5

     negative rho (up, down):  3.127E-01 0.000E+00

     total cpu time spent up to now is      212.0 secs

     total energy              =    -300.93890662 Ry
     estimated scf accuracy    <       0.00000265 Ry

     iteration # 12     ecut=   150.00 Ry     beta= 0.70
     CG style diagonalization
     ethr =  9.80E-09,  avg # of iterations =  3.7

     negative rho (up, down):  3.127E-01 0.000E+00

     total cpu time spent up to now is      213.7 secs

     total energy              =    -300.93890740 Ry
     estimated scf accuracy    <       0.00000055 Ry

     iteration # 13     ecut=   150.00 Ry     beta= 0.70
     CG style diagonalization
     ethr =  2.05E-09,  avg # of iterations =  3.3

     negative rho (up, down):  3.127E-01 0.000E+00

     total cpu time spent up to now is      215.2 secs

     total energy              =    -300.93890739 Ry
     estimated scf accuracy    <       0.00000014 Ry

     iteration # 14     ecut=   150.00 Ry     beta= 0.70
     CG style diagonalization
     ethr =  5.20E-10,  avg # of iterations =  3.8

     negative rho (up, down):  3.127E-01 0.000E+00

     total cpu time spent up to now is      216.9 secs

     total energy              =    -300.93890742 Ry
     estimated scf accuracy    <       0.00000003 Ry

     iteration # 15     ecut=   150.00 Ry     beta= 0.70
     CG style diagonalization
     ethr =  1.01E-10,  avg # of iterations =  3.4

     negative rho (up, down):  3.127E-01 0.000E+00

     total cpu time spent up to now is      218.5 secs

     End of self-consistent calculation

     Number of k-points >= 100: set verbosity='high' to print the bands.

     the Fermi energy is    20.1113 ev

!    total energy              =    -300.93890743 Ry
     estimated scf accuracy    <          7.6E-10 Ry
     smearing contrib. (-TS)   =      -0.00013591 Ry
     internal energy E=F+TS    =    -300.93877152 Ry

     convergence has been achieved in  15 iterations

     negative rho (up, down):  3.127E-01 0.000E+00

     Forces acting on atoms (cartesian axes, Ry/au):

     atom    1 type  1   force =     0.00000000    0.00000000    0.00000000
     atom    2 type  2   force =     0.00000000    0.00000000    0.00000000

     Total force =     0.000000     Total SCF correction =     0.000000


     Computing stress (Cartesian axis) and pressure


     negative rho (up, down):  3.127E-01 0.000E+00
          total   stress  (Ry/bohr**3)                   (kbar)     P=        4.03
  -0.00001684   0.00000000   0.00000000           -2.48        0.00        0.00
   0.00000000  -0.00001684   0.00000000            0.00       -2.48        0.00
   0.00000000   0.00000000   0.00011586            0.00        0.00       17.04


     Entering Dynamics;  it =     6   time =  0.00484 pico-seconds

  new lattice vectors (alat unit) :
   0.964385335   0.000000000  -0.000000000
   0.000000000   0.964385335  -0.000000000
  -0.000000000  -0.000000000   1.153215287
  new unit-cell volume =    193.4738 (a.u.)^3
  new positions in cryst coord
Ti       0.000000000   0.000000000   0.000000000
Ir       0.500000000   0.500000000   0.500000000
  new positions in cart coord (alat unit)
Ti       0.000000000   0.000000000   0.000000000
Ir       0.482192667   0.482192667   0.576607644

     Ekin =     0.00928323 Ry    T =  196.6 K  Etot =     -300.92962420
     new unit-cell volume =    193.47381 a.u.^3 (    28.66986 Ang^3 )
     density =     22.43216 g/cm^3

CELL_PARAMETERS (alat=  5.65028300)
   0.964385335   0.000000000  -0.000000000
   0.000000000   0.964385335  -0.000000000
  -0.000000000  -0.000000000   1.153215287

ATOMIC_POSITIONS (crystal)
Ti            0.0000000000        0.0000000000        0.0000000000    0   0   0
Ir            0.5000000000        0.5000000000        0.5000000000    0   0   0



     Writing output data file ./TiIr.P4mmm.save/
     NEW-OLD atomic charge density approx. for the potential

     Check: negative core charge=   -0.000001

     negative rho (up, down):  3.064E-01 0.000E+00
     extrapolated charge   26.57766, renormalised to   27.00000

     total cpu time spent up to now is      220.9 secs

     Self-consistent Calculation

     iteration #  1     ecut=   150.00 Ry     beta= 0.70
     CG style diagonalization
     c_bands:  1 eigenvalues not converged
     c_bands:  1 eigenvalues not converged
     c_bands:  1 eigenvalues not converged
     c_bands:  1 eigenvalues not converged
     ethr =  1.00E-06,  avg # of iterations =  8.3

     negative rho (up, down):  3.201E-01 0.000E+00

     total cpu time spent up to now is      225.1 secs

     total energy              =    -300.90120547 Ry
     estimated scf accuracy    <       0.03170175 Ry

     iteration #  2     ecut=   150.00 Ry     beta= 0.70
     CG style diagonalization
     ethr =  1.17E-04,  avg # of iterations =  4.8

     negative rho (up, down):  3.146E-01 0.000E+00

     total cpu time spent up to now is      227.2 secs

     total energy              =    -300.91870630 Ry
     estimated scf accuracy    <       0.15803266 Ry

     iteration #  3     ecut=   150.00 Ry     beta= 0.70
     CG style diagonalization
     ethr =  1.17E-04,  avg # of iterations =  3.8

     negative rho (up, down):  3.144E-01 0.000E+00

     total cpu time spent up to now is      228.9 secs

     total energy              =    -300.93664864 Ry
     estimated scf accuracy    <       0.03692032 Ry

     iteration #  4     ecut=   150.00 Ry     beta= 0.70
     CG style diagonalization
     ethr =  1.17E-04,  avg # of iterations =  3.1

     negative rho (up, down):  3.139E-01 0.000E+00

     total cpu time spent up to now is      230.3 secs

     total energy              =    -300.93922396 Ry
     estimated scf accuracy    <       0.00589708 Ry

     iteration #  5     ecut=   150.00 Ry     beta= 0.70
     CG style diagonalization
     ethr =  2.18E-05,  avg # of iterations =  3.1

     negative rho (up, down):  3.130E-01 0.000E+00

     total cpu time spent up to now is      231.8 secs

     total energy              =    -300.93799944 Ry
     estimated scf accuracy    <       0.00386111 Ry

     iteration #  6     ecut=   150.00 Ry     beta= 0.70
     CG style diagonalization
     ethr =  1.43E-05,  avg # of iterations =  3.4

     negative rho (up, down):  3.131E-01 0.000E+00

     total cpu time spent up to now is      233.3 secs

     total energy              =    -300.93853971 Ry
     estimated scf accuracy    <       0.00079259 Ry

     iteration #  7     ecut=   150.00 Ry     beta= 0.70
     CG style diagonalization
     ethr =  2.94E-06,  avg # of iterations =  3.2

     negative rho (up, down):  3.127E-01 0.000E+00

     total cpu time spent up to now is      234.8 secs

     total energy              =    -300.93840844 Ry
     estimated scf accuracy    <       0.00057599 Ry

     iteration #  8     ecut=   150.00 Ry     beta= 0.70
     CG style diagonalization
     ethr =  2.13E-06,  avg # of iterations =  3.2

     negative rho (up, down):  3.125E-01 0.000E+00

     total cpu time spent up to now is      236.3 secs

     total energy              =    -300.93839319 Ry
     estimated scf accuracy    <       0.00011915 Ry

     iteration #  9     ecut=   150.00 Ry     beta= 0.70
     CG style diagonalization
     ethr =  4.41E-07,  avg # of iterations =  3.5

     negative rho (up, down):  3.125E-01 0.000E+00

     total cpu time spent up to now is      237.9 secs

     total energy              =    -300.93843377 Ry
     estimated scf accuracy    <       0.00000305 Ry

     iteration # 10     ecut=   150.00 Ry     beta= 0.70
     CG style diagonalization
     ethr =  1.13E-08,  avg # of iterations =  4.3

     negative rho (up, down):  3.125E-01 0.000E+00

     total cpu time spent up to now is      239.9 secs

     total energy              =    -300.93843386 Ry
     estimated scf accuracy    <       0.00000797 Ry

     iteration # 11     ecut=   150.00 Ry     beta= 0.70
     CG style diagonalization
     ethr =  1.13E-08,  avg # of iterations =  3.6

     negative rho (up, down):  3.126E-01 0.000E+00

     total cpu time spent up to now is      241.5 secs

     total energy              =    -300.93843465 Ry
     estimated scf accuracy    <       0.00000051 Ry

     iteration # 12     ecut=   150.00 Ry     beta= 0.70
     CG style diagonalization
     ethr =  1.90E-09,  avg # of iterations =  3.7

     negative rho (up, down):  3.126E-01 0.000E+00

     total cpu time spent up to now is      243.2 secs

     total energy              =    -300.93843479 Ry
     estimated scf accuracy    <       0.00000016 Ry

     iteration # 13     ecut=   150.00 Ry     beta= 0.70
     CG style diagonalization
     ethr =  6.04E-10,  avg # of iterations =  3.3

     negative rho (up, down):  3.125E-01 0.000E+00

     total cpu time spent up to now is      244.8 secs

     total energy              =    -300.93843476 Ry
     estimated scf accuracy    <       0.00000010 Ry

     iteration # 14     ecut=   150.00 Ry     beta= 0.70
     CG style diagonalization
     ethr =  3.84E-10,  avg # of iterations =  3.7

     negative rho (up, down):  3.125E-01 0.000E+00

     total cpu time spent up to now is      246.4 secs

     total energy              =    -300.93843478 Ry
     estimated scf accuracy    <       0.00000002 Ry

     iteration # 15     ecut=   150.00 Ry     beta= 0.70
     CG style diagonalization
     ethr =  5.80E-11,  avg # of iterations =  3.7

     negative rho (up, down):  3.125E-01 0.000E+00

     total cpu time spent up to now is      248.1 secs

     total energy              =    -300.93843478 Ry
     estimated scf accuracy    <       0.00000005 Ry

     iteration # 16     ecut=   150.00 Ry     beta= 0.70
     CG style diagonalization
     ethr =  5.80E-11,  avg # of iterations =  3.2

     negative rho (up, down):  3.125E-01 0.000E+00

     total cpu time spent up to now is      249.6 secs

     total energy              =    -300.93843478 Ry
     estimated scf accuracy    <       0.00000001 Ry

     iteration # 17     ecut=   150.00 Ry     beta= 0.70
     CG style diagonalization
     ethr =  3.92E-11,  avg # of iterations =  3.0

     negative rho (up, down):  3.126E-01 0.000E+00

     total cpu time spent up to now is      250.9 secs

     End of self-consistent calculation

     Number of k-points >= 100: set verbosity='high' to print the bands.

     the Fermi energy is    20.4706 ev

!    total energy              =    -300.93843478 Ry
     estimated scf accuracy    <          5.1E-09 Ry
     smearing contrib. (-TS)   =      -0.00013011 Ry
     internal energy E=F+TS    =    -300.93830467 Ry

     convergence has been achieved in  17 iterations

     negative rho (up, down):  3.126E-01 0.000E+00

     Forces acting on atoms (cartesian axes, Ry/au):

     atom    1 type  1   force =     0.00000000    0.00000000    0.00000000
     atom    2 type  2   force =     0.00000000    0.00000000    0.00000000

     Total force =     0.000000     Total SCF correction =     0.000000


     Computing stress (Cartesian axis) and pressure


     negative rho (up, down):  3.126E-01 0.000E+00
          total   stress  (Ry/bohr**3)                   (kbar)     P=       46.79
   0.00032714  -0.00000000   0.00000000           48.12       -0.00        0.00
  -0.00000000   0.00032714   0.00000000           -0.00       48.12        0.00
   0.00000000   0.00000000   0.00029994            0.00        0.00       44.12


     Entering Dynamics;  it =     7   time =  0.00581 pico-seconds

  new lattice vectors (alat unit) :
   0.971057973   0.000000000  -0.000000000
   0.000000000   0.971057973  -0.000000000
  -0.000000000  -0.000000000   1.154187262
  new unit-cell volume =    196.3257 (a.u.)^3
  new positions in cryst coord
Ti       0.000000000   0.000000000   0.000000000
Ir       0.500000000   0.500000000   0.500000000
  new positions in cart coord (alat unit)
Ti       0.000000000   0.000000000   0.000000000
Ir       0.485528986   0.485528986   0.577093631

     Ekin =     0.00651380 Ry    T =  201.9 K  Etot =     -300.93192098
     new unit-cell volume =    196.32572 a.u.^3 (    29.09247 Ang^3 )
     density =     22.10630 g/cm^3

CELL_PARAMETERS (alat=  5.65028300)
   0.971057973   0.000000000  -0.000000000
   0.000000000   0.971057973  -0.000000000
  -0.000000000  -0.000000000   1.154187262

ATOMIC_POSITIONS (crystal)
Ti            0.0000000000        0.0000000000        0.0000000000    0   0   0
Ir            0.5000000000        0.5000000000        0.5000000000    0   0   0



     Writing output data file ./TiIr.P4mmm.save/
     NEW-OLD atomic charge density approx. for the potential

     negative rho (up, down):  3.182E-01 0.000E+00
     extrapolated charge   27.37042, renormalised to   27.00000

     total cpu time spent up to now is      253.6 secs

     Self-consistent Calculation

     iteration #  1     ecut=   150.00 Ry     beta= 0.70
     CG style diagonalization
     c_bands:  1 eigenvalues not converged
     c_bands:  1 eigenvalues not converged
     c_bands:  1 eigenvalues not converged
     c_bands:  1 eigenvalues not converged
     c_bands:  1 eigenvalues not converged
     ethr =  1.00E-06,  avg # of iterations =  7.7

     negative rho (up, down):  3.060E-01 0.000E+00

     total cpu time spent up to now is      257.6 secs

     total energy              =    -300.91055256 Ry
     estimated scf accuracy    <       0.02386488 Ry

     iteration #  2     ecut=   150.00 Ry     beta= 0.70
     CG style diagonalization
     ethr =  8.84E-05,  avg # of iterations =  4.8

     negative rho (up, down):  3.109E-01 0.000E+00

     total cpu time spent up to now is      259.7 secs

     total energy              =    -300.92361081 Ry
     estimated scf accuracy    <       0.13279295 Ry

     iteration #  3     ecut=   150.00 Ry     beta= 0.70
     CG style diagonalization
     ethr =  8.84E-05,  avg # of iterations =  3.8

     negative rho (up, down):  3.111E-01 0.000E+00

     total cpu time spent up to now is      261.4 secs

     total energy              =    -300.93717032 Ry
     estimated scf accuracy    <       0.03006230 Ry

     iteration #  4     ecut=   150.00 Ry     beta= 0.70
     CG style diagonalization
     ethr =  8.84E-05,  avg # of iterations =  3.1

     negative rho (up, down):  3.116E-01 0.000E+00

     total cpu time spent up to now is      262.9 secs

     total energy              =    -300.93950276 Ry
     estimated scf accuracy    <       0.00474269 Ry

     iteration #  5     ecut=   150.00 Ry     beta= 0.70
     CG style diagonalization
     ethr =  1.76E-05,  avg # of iterations =  3.1

     negative rho (up, down):  3.117E-01 0.000E+00

     total cpu time spent up to now is      264.3 secs

     total energy              =    -300.93951219 Ry
     estimated scf accuracy    <       0.00292447 Ry

     iteration #  6     ecut=   150.00 Ry     beta= 0.70
     CG style diagonalization
     ethr =  1.08E-05,  avg # of iterations =  3.1

     negative rho (up, down):  3.119E-01 0.000E+00

     total cpu time spent up to now is      265.7 secs

     total energy              =    -300.93935165 Ry
     estimated scf accuracy    <       0.00231833 Ry

     iteration #  7     ecut=   150.00 Ry     beta= 0.70
     CG style diagonalization
     ethr =  8.59E-06,  avg # of iterations =  3.0

     negative rho (up, down):  3.125E-01 0.000E+00

     total cpu time spent up to now is      267.1 secs

     total energy              =    -300.93879951 Ry
     estimated scf accuracy    <       0.00148031 Ry

     iteration #  8     ecut=   150.00 Ry     beta= 0.70
     CG style diagonalization
     ethr =  5.48E-06,  avg # of iterations =  3.3

     negative rho (up, down):  3.126E-01 0.000E+00

     total cpu time spent up to now is      268.6 secs

     total energy              =    -300.93895514 Ry
     estimated scf accuracy    <       0.00034855 Ry

     iteration #  9     ecut=   150.00 Ry     beta= 0.70
     CG style diagonalization
     ethr =  1.29E-06,  avg # of iterations =  3.2

     negative rho (up, down):  3.126E-01 0.000E+00

     total cpu time spent up to now is      270.1 secs

     total energy              =    -300.93897386 Ry
     estimated scf accuracy    <       0.00026914 Ry

     iteration # 10     ecut=   150.00 Ry     beta= 0.70
     CG style diagonalization
     ethr =  9.97E-07,  avg # of iterations =  3.0

     negative rho (up, down):  3.127E-01 0.000E+00

     total cpu time spent up to now is      271.5 secs

     total energy              =    -300.93896872 Ry
     estimated scf accuracy    <       0.00020358 Ry

     iteration # 11     ecut=   150.00 Ry     beta= 0.70
     CG style diagonalization
     ethr =  7.54E-07,  avg # of iterations =  3.0

     negative rho (up, down):  3.127E-01 0.000E+00

     total cpu time spent up to now is      272.9 secs

     total energy              =    -300.93894118 Ry
     estimated scf accuracy    <       0.00017709 Ry

     iteration # 12     ecut=   150.00 Ry     beta= 0.70
     CG style diagonalization
     ethr =  6.56E-07,  avg # of iterations =  3.0

     negative rho (up, down):  3.127E-01 0.000E+00

     total cpu time spent up to now is      274.2 secs

     total energy              =    -300.93894483 Ry
     estimated scf accuracy    <       0.00002744 Ry

     iteration # 13     ecut=   150.00 Ry     beta= 0.70
     CG style diagonalization
     ethr =  1.02E-07,  avg # of iterations =  3.2

     negative rho (up, down):  3.127E-01 0.000E+00

     total cpu time spent up to now is      275.7 secs

     total energy              =    -300.93894842 Ry
     estimated scf accuracy    <       0.00000345 Ry

     iteration # 14     ecut=   150.00 Ry     beta= 0.70
     CG style diagonalization
     ethr =  1.28E-08,  avg # of iterations =  3.3

     negative rho (up, down):  3.127E-01 0.000E+00

     total cpu time spent up to now is      277.3 secs

     total energy              =    -300.93894713 Ry
     estimated scf accuracy    <       0.00000579 Ry

     iteration # 15     ecut=   150.00 Ry     beta= 0.70
     CG style diagonalization
     ethr =  1.28E-08,  avg # of iterations =  3.6

     negative rho (up, down):  3.127E-01 0.000E+00

     total cpu time spent up to now is      279.0 secs

     total energy              =    -300.93894807 Ry
     estimated scf accuracy    <       0.00000461 Ry

     iteration # 16     ecut=   150.00 Ry     beta= 0.70
     CG style diagonalization
     ethr =  1.28E-08,  avg # of iterations =  3.2

     negative rho (up, down):  3.128E-01 0.000E+00

     total cpu time spent up to now is      280.4 secs

     total energy              =    -300.93894888 Ry
     estimated scf accuracy    <       0.00000098 Ry

     iteration # 17     ecut=   150.00 Ry     beta= 0.70
     CG style diagonalization
     ethr =  3.63E-09,  avg # of iterations =  3.5

     negative rho (up, down):  3.128E-01 0.000E+00

     total cpu time spent up to now is      282.1 secs

     total energy              =    -300.93894934 Ry
     estimated scf accuracy    <       0.00000620 Ry

     iteration # 18     ecut=   150.00 Ry     beta= 0.70
     CG style diagonalization
     ethr =  3.63E-09,  avg # of iterations =  3.1

     negative rho (up, down):  3.128E-01 0.000E+00

     total cpu time spent up to now is      283.5 secs

     total energy              =    -300.93894893 Ry
     estimated scf accuracy    <       0.00000622 Ry

     iteration # 19     ecut=   150.00 Ry     beta= 0.70
     CG style diagonalization
     ethr =  3.63E-09,  avg # of iterations =  3.0

     negative rho (up, down):  3.128E-01 0.000E+00

     total cpu time spent up to now is      284.9 secs

     total energy              =    -300.93894843 Ry
     estimated scf accuracy    <       0.00000416 Ry

     iteration # 20     ecut=   150.00 Ry     beta= 0.70
     CG style diagonalization
     ethr =  3.63E-09,  avg # of iterations =  3.2

     negative rho (up, down):  3.128E-01 0.000E+00

     total cpu time spent up to now is      286.4 secs

     total energy              =    -300.93894843 Ry
     estimated scf accuracy    <       0.00000092 Ry

     iteration # 21     ecut=   150.00 Ry     beta= 0.70
     CG style diagonalization
     ethr =  3.39E-09,  avg # of iterations =  3.0

     negative rho (up, down):  3.128E-01 0.000E+00

     total cpu time spent up to now is      287.7 secs

     total energy              =    -300.93894845 Ry
     estimated scf accuracy    <       0.00000017 Ry

     iteration # 22     ecut=   150.00 Ry     beta= 0.70
     CG style diagonalization
     ethr =  6.19E-10,  avg # of iterations =  3.3

     negative rho (up, down):  3.128E-01 0.000E+00

     total cpu time spent up to now is      289.3 secs

[...]
Ir            0.5000000000        0.5000000000        0.5000000000    0   0   0
End final coordinates



     Writing output data file ./TiIr.P4mmm.save/

check_writable_dir fail: insufficient permissions to access './TiIr.P4mmm.save/'

check_writable_dir fail: insufficient permissions to access './TiIr.P4mmm.save/'
forrtl: Permission denied
forrtl: severe (9): permission to access file denied, unit 4, file /share/data/pkveton/QE/TiIr/P4mmm/vc-relax/./TiIr.P4mmm.save/wfc171.dat
Image              PC                Routine            Line        Source             
pw.x               0000000000E1164B  Unknown               Unknown  Unknown
pw.x               0000000000E30730  Unknown               Unknown  Unknown
pw.x               000000000095516A  io_base_mp_write_         101  io_base.f90
pw.x               000000000057E054  pw_restart_new_mp         842  pw_restart_new.f90
pw.x               0000000000575614  punch_                    108  punch.f90
pw.x               00000000005B39A9  run_pwscf_                284  run_pwscf.f90
pw.x               000000000040DBDB  MAIN__                    106  pwscf.f90
pw.x               000000000040DA22  Unknown               Unknown  Unknown
libc-2.24.so       00007F5099E582E1  __libc_start_main     Unknown  Unknown
pw.x               000000000040D8EA  Unknown               Unknown  Unknown

===================================================================================
=   BAD TERMINATION OF ONE OF YOUR APPLICATION PROCESSES
=   RANK 52 PID 26616 RUNNING AT pleiades13.uwp.edu
=   EXIT STATUS: 9
===================================================================================

===================================================================================
=   BAD TERMINATION OF ONE OF YOUR APPLICATION PROCESSES
=   RANK 53 PID 26617 RUNNING AT pleiades13.uwp.edu
=   KILLED BY SIGNAL: 9 (Killed)
===================================================================================

===================================================================================
=   BAD TERMINATION OF ONE OF YOUR APPLICATION PROCESSES
=   RANK 54 PID 26618 RUNNING AT pleiades13.uwp.edu
=   KILLED BY SIGNAL: 9 (Killed)
===================================================================================

===================================================================================
=   BAD TERMINATION OF ONE OF YOUR APPLICATION PROCESSES
=   RANK 55 PID 26619 RUNNING AT pleiades13.uwp.edu
=   KILLED BY SIGNAL: 9 (Killed)
===================================================================================

===================================================================================
=   BAD TERMINATION OF ONE OF YOUR APPLICATION PROCESSES
=   RANK 0 PID 27256 RUNNING AT pleiades01.uwp.edu
=   KILLED BY SIGNAL: 9 (Killed)
===================================================================================

===================================================================================
=   BAD TERMINATION OF ONE OF YOUR APPLICATION PROCESSES
=   RANK 1 PID 27257 RUNNING AT pleiades01.uwp.edu
=   KILLED BY SIGNAL: 9 (Killed)
===================================================================================

===================================================================================
=   BAD TERMINATION OF ONE OF YOUR APPLICATION PROCESSES
=   RANK 2 PID 27258 RUNNING AT pleiades01.uwp.edu
=   KILLED BY SIGNAL: 9 (Killed)
===================================================================================

===================================================================================
=   BAD TERMINATION OF ONE OF YOUR APPLICATION PROCESSES
=   RANK 3 PID 27259 RUNNING AT pleiades01.uwp.edu
=   KILLED BY SIGNAL: 9 (Killed)
===================================================================================

===================================================================================
=   BAD TERMINATION OF ONE OF YOUR APPLICATION PROCESSES
=   RANK 4 PID 16917 RUNNING AT pleiades02.uwp.edu
=   KILLED BY SIGNAL: 9 (Killed)
===================================================================================

===================================================================================
=   BAD TERMINATION OF ONE OF YOUR APPLICATION PROCESSES
=   RANK 5 PID 16918 RUNNING AT pleiades02.uwp.edu
=   KILLED BY SIGNAL: 9 (Killed)
===================================================================================

===================================================================================
=   BAD TERMINATION OF ONE OF YOUR APPLICATION PROCESSES
=   RANK 6 PID 16919 RUNNING AT pleiades02.uwp.edu
=   KILLED BY SIGNAL: 9 (Killed)
===================================================================================

===================================================================================
=   BAD TERMINATION OF ONE OF YOUR APPLICATION PROCESSES
=   RANK 7 PID 16920 RUNNING AT pleiades02.uwp.edu
=   KILLED BY SIGNAL: 9 (Killed)
===================================================================================

===================================================================================
=   BAD TERMINATION OF ONE OF YOUR APPLICATION PROCESSES
=   RANK 8 PID 7633 RUNNING AT pleiades03.uwp.edu
=   KILLED BY SIGNAL: 9 (Killed)
===================================================================================

===================================================================================
=   BAD TERMINATION OF ONE OF YOUR APPLICATION PROCESSES
=   RANK 9 PID 7634 RUNNING AT pleiades03.uwp.edu
=   KILLED BY SIGNAL: 9 (Killed)
===================================================================================

===================================================================================
=   BAD TERMINATION OF ONE OF YOUR APPLICATION PROCESSES
=   RANK 10 PID 7635 RUNNING AT pleiades03.uwp.edu
=   KILLED BY SIGNAL: 9 (Killed)
===================================================================================

===================================================================================
=   BAD TERMINATION OF ONE OF YOUR APPLICATION PROCESSES
=   RANK 11 PID 7636 RUNNING AT pleiades03.uwp.edu
=   KILLED BY SIGNAL: 9 (Killed)
===================================================================================

===================================================================================
=   BAD TERMINATION OF ONE OF YOUR APPLICATION PROCESSES
=   RANK 36 PID 9441 RUNNING AT pleiades10.uwp.edu
=   KILLED BY SIGNAL: 9 (Killed)
===================================================================================

===================================================================================
=   BAD TERMINATION OF ONE OF YOUR APPLICATION PROCESSES
=   RANK 37 PID 9442 RUNNING AT pleiades10.uwp.edu
=   KILLED BY SIGNAL: 9 (Killed)
===================================================================================

===================================================================================
=   BAD TERMINATION OF ONE OF YOUR APPLICATION PROCESSES
=   RANK 38 PID 9443 RUNNING AT pleiades10.uwp.edu
=   KILLED BY SIGNAL: 9 (Killed)
===================================================================================

===================================================================================
=   BAD TERMINATION OF ONE OF YOUR APPLICATION PROCESSES
=   RANK 39 PID 9444 RUNNING AT pleiades10.uwp.edu
=   KILLED BY SIGNAL: 9 (Killed)
===================================================================================

===================================================================================
=   BAD TERMINATION OF ONE OF YOUR APPLICATION PROCESSES
=   RANK 12 PID 311 RUNNING AT pleiades04.uwp.edu
=   KILLED BY SIGNAL: 9 (Killed)
===================================================================================

===================================================================================
=   BAD TERMINATION OF ONE OF YOUR APPLICATION PROCESSES
=   RANK 13 PID 312 RUNNING AT pleiades04.uwp.edu
=   KILLED BY SIGNAL: 9 (Killed)
===================================================================================

===================================================================================
=   BAD TERMINATION OF ONE OF YOUR APPLICATION PROCESSES
=   RANK 14 PID 313 RUNNING AT pleiades04.uwp.edu
=   KILLED BY SIGNAL: 9 (Killed)
===================================================================================

===================================================================================
=   BAD TERMINATION OF ONE OF YOUR APPLICATION PROCESSES
=   RANK 15 PID 314 RUNNING AT pleiades04.uwp.edu
=   KILLED BY SIGNAL: 9 (Killed)
===================================================================================

===================================================================================
=   BAD TERMINATION OF ONE OF YOUR APPLICATION PROCESSES
=   RANK 20 PID 23613 RUNNING AT pleiades06.uwp.edu
=   KILLED BY SIGNAL: 9 (Killed)
===================================================================================

===================================================================================
=   BAD TERMINATION OF ONE OF YOUR APPLICATION PROCESSES
=   RANK 21 PID 23614 RUNNING AT pleiades06.uwp.edu
=   KILLED BY SIGNAL: 9 (Killed)
===================================================================================

===================================================================================
=   BAD TERMINATION OF ONE OF YOUR APPLICATION PROCESSES
=   RANK 22 PID 23615 RUNNING AT pleiades06.uwp.edu
=   KILLED BY SIGNAL: 9 (Killed)
===================================================================================

===================================================================================
=   BAD TERMINATION OF ONE OF YOUR APPLICATION PROCESSES
=   RANK 23 PID 23616 RUNNING AT pleiades06.uwp.edu
=   KILLED BY SIGNAL: 9 (Killed)
===================================================================================

===================================================================================
=   BAD TERMINATION OF ONE OF YOUR APPLICATION PROCESSES
=   RANK 32 PID 23279 RUNNING AT pleiades09.uwp.edu
=   KILLED BY SIGNAL: 9 (Killed)
===================================================================================

===================================================================================
=   BAD TERMINATION OF ONE OF YOUR APPLICATION PROCESSES
=   RANK 33 PID 23280 RUNNING AT pleiades09.uwp.edu
=   KILLED BY SIGNAL: 9 (Killed)
===================================================================================

===================================================================================
=   BAD TERMINATION OF ONE OF YOUR APPLICATION PROCESSES
=   RANK 34 PID 23281 RUNNING AT pleiades09.uwp.edu
=   KILLED BY SIGNAL: 9 (Killed)
===================================================================================

===================================================================================
=   BAD TERMINATION OF ONE OF YOUR APPLICATION PROCESSES
=   RANK 35 PID 23282 RUNNING AT pleiades09.uwp.edu
=   KILLED BY SIGNAL: 9 (Killed)
===================================================================================

===================================================================================
=   BAD TERMINATION OF ONE OF YOUR APPLICATION PROCESSES
=   RANK 16 PID 16581 RUNNING AT pleiades05.uwp.edu
=   KILLED BY SIGNAL: 9 (Killed)
===================================================================================

===================================================================================
=   BAD TERMINATION OF ONE OF YOUR APPLICATION PROCESSES
=   RANK 17 PID 16582 RUNNING AT pleiades05.uwp.edu
=   KILLED BY SIGNAL: 9 (Killed)
===================================================================================

===================================================================================
=   BAD TERMINATION OF ONE OF YOUR APPLICATION PROCESSES
=   RANK 18 PID 16583 RUNNING AT pleiades05.uwp.edu
=   KILLED BY SIGNAL: 9 (Killed)
===================================================================================

===================================================================================
=   BAD TERMINATION OF ONE OF YOUR APPLICATION PROCESSES
=   RANK 19 PID 16584 RUNNING AT pleiades05.uwp.edu
=   KILLED BY SIGNAL: 9 (Killed)
===================================================================================

===================================================================================
=   BAD TERMINATION OF ONE OF YOUR APPLICATION PROCESSES
=   RANK 48 PID 6804 RUNNING AT pleiades14.uwp.edu
=   KILLED BY SIGNAL: 9 (Killed)
===================================================================================

===================================================================================
=   BAD TERMINATION OF ONE OF YOUR APPLICATION PROCESSES
=   RANK 49 PID 6805 RUNNING AT pleiades14.uwp.edu
=   KILLED BY SIGNAL: 9 (Killed)
===================================================================================

===================================================================================
=   BAD TERMINATION OF ONE OF YOUR APPLICATION PROCESSES
=   RANK 50 PID 6806 RUNNING AT pleiades14.uwp.edu
=   KILLED BY SIGNAL: 9 (Killed)
===================================================================================

===================================================================================
=   BAD TERMINATION OF ONE OF YOUR APPLICATION PROCESSES
=   RANK 51 PID 6807 RUNNING AT pleiades14.uwp.edu
=   KILLED BY SIGNAL: 9 (Killed)
===================================================================================

===================================================================================
=   BAD TERMINATION OF ONE OF YOUR APPLICATION PROCESSES
=   RANK 44 PID 21825 RUNNING AT pleiades12.uwp.edu
=   KILLED BY SIGNAL: 9 (Killed)
===================================================================================

===================================================================================
=   BAD TERMINATION OF ONE OF YOUR APPLICATION PROCESSES
=   RANK 45 PID 21826 RUNNING AT pleiades12.uwp.edu
=   KILLED BY SIGNAL: 9 (Killed)
===================================================================================

===================================================================================
=   BAD TERMINATION OF ONE OF YOUR APPLICATION PROCESSES
=   RANK 46 PID 21827 RUNNING AT pleiades12.uwp.edu
=   KILLED BY SIGNAL: 9 (Killed)
===================================================================================

===================================================================================
=   BAD TERMINATION OF ONE OF YOUR APPLICATION PROCESSES
=   RANK 47 PID 21828 RUNNING AT pleiades12.uwp.edu
=   KILLED BY SIGNAL: 9 (Killed)
===================================================================================

===================================================================================
=   BAD TERMINATION OF ONE OF YOUR APPLICATION PROCESSES
=   RANK 24 PID 15320 RUNNING AT pleiades07.uwp.edu
=   KILLED BY SIGNAL: 9 (Killed)
===================================================================================

===================================================================================
=   BAD TERMINATION OF ONE OF YOUR APPLICATION PROCESSES
=   RANK 25 PID 15321 RUNNING AT pleiades07.uwp.edu
=   KILLED BY SIGNAL: 9 (Killed)
===================================================================================

===================================================================================
=   BAD TERMINATION OF ONE OF YOUR APPLICATION PROCESSES
=   RANK 26 PID 15322 RUNNING AT pleiades07.uwp.edu
=   KILLED BY SIGNAL: 9 (Killed)
===================================================================================

===================================================================================
=   BAD TERMINATION OF ONE OF YOUR APPLICATION PROCESSES
=   RANK 27 PID 15323 RUNNING AT pleiades07.uwp.edu
=   KILLED BY SIGNAL: 9 (Killed)
===================================================================================

===================================================================================
=   BAD TERMINATION OF ONE OF YOUR APPLICATION PROCESSES
=   RANK 28 PID 31135 RUNNING AT pleiades08.uwp.edu
=   KILLED BY SIGNAL: 9 (Killed)
===================================================================================

===================================================================================
=   BAD TERMINATION OF ONE OF YOUR APPLICATION PROCESSES
=   RANK 29 PID 31136 RUNNING AT pleiades08.uwp.edu
=   KILLED BY SIGNAL: 9 (Killed)
===================================================================================

===================================================================================
=   BAD TERMINATION OF ONE OF YOUR APPLICATION PROCESSES
=   RANK 30 PID 31137 RUNNING AT pleiades08.uwp.edu
=   KILLED BY SIGNAL: 9 (Killed)
===================================================================================

===================================================================================
=   BAD TERMINATION OF ONE OF YOUR APPLICATION PROCESSES
=   RANK 31 PID 31138 RUNNING AT pleiades08.uwp.edu
=   KILLED BY SIGNAL: 9 (Killed)
===================================================================================

===================================================================================
=   BAD TERMINATION OF ONE OF YOUR APPLICATION PROCESSES
=   RANK 56 PID 31267 RUNNING AT pleiades15.uwp.edu
=   KILLED BY SIGNAL: 9 (Killed)
===================================================================================

===================================================================================
=   BAD TERMINATION OF ONE OF YOUR APPLICATION PROCESSES
=   RANK 57 PID 31268 RUNNING AT pleiades15.uwp.edu
=   KILLED BY SIGNAL: 9 (Killed)
===================================================================================

===================================================================================
=   BAD TERMINATION OF ONE OF YOUR APPLICATION PROCESSES
=   RANK 58 PID 31269 RUNNING AT pleiades15.uwp.edu
=   KILLED BY SIGNAL: 9 (Killed)
===================================================================================

===================================================================================
=   BAD TERMINATION OF ONE OF YOUR APPLICATION PROCESSES
=   RANK 59 PID 31270 RUNNING AT pleiades15.uwp.edu
=   KILLED BY SIGNAL: 9 (Killed)
===================================================================================

===================================================================================
=   BAD TERMINATION OF ONE OF YOUR APPLICATION PROCESSES
=   RANK 40 PID 17400 RUNNING AT pleiades11.uwp.edu
=   KILLED BY SIGNAL: 9 (Killed)
===================================================================================

===================================================================================
=   BAD TERMINATION OF ONE OF YOUR APPLICATION PROCESSES
=   RANK 41 PID 17401 RUNNING AT pleiades11.uwp.edu
=   KILLED BY SIGNAL: 9 (Killed)
===================================================================================

===================================================================================
=   BAD TERMINATION OF ONE OF YOUR APPLICATION PROCESSES
=   RANK 42 PID 17402 RUNNING AT pleiades11.uwp.edu
=   KILLED BY SIGNAL: 9 (Killed)
===================================================================================

===================================================================================
=   BAD TERMINATION OF ONE OF YOUR APPLICATION PROCESSES
=   RANK 43 PID 17403 RUNNING AT pleiades11.uwp.edu
=   KILLED BY SIGNAL: 9 (Killed)
===================================================================================
